CRYSTAL
PRIMVEC
-5.131388 0.000000 5.131388
0.000000 5.131388 5.131388
-5.131388 5.131388 0.000000
CONVVEC
-5.131388 0.000000 5.131388
0.000000 5.131388 5.131388
-5.131388 5.131388 0.000000
PRIMCOORD
2 1
14 0.000000 0.000000 0.000000
14 2.565694 2.565694 2.565694
