
     Program PWSCF v.6.4.1 starts on  3Sep2021 at 20:49:26 

     This program is part of the open-source Quantum ESPRESSO suite
     for quantum simulation of materials; please cite
         "P. Giannozzi et al., J. Phys.:Condens. Matter 21 395502 (2009);
         "P. Giannozzi et al., J. Phys.:Condens. Matter 29 465901 (2017);
          URL http://www.quantum-espresso.org", 
     in publications or presentations arising from this work. More details at
     http://www.quantum-espresso.org/quote

     Parallel version (MPI), running on    60 processors

     MPI processes distributed on    15 nodes
     K-points division:     npool     =      15
     R & G space division:  proc/nbgrp/npool/nimage =       4
     Reading input from Si.Fd-3m_4ML.scf.in

     Current dimensions of program PWSCF are:
     Max number of different atomic species (ntypx) = 10
     Max number of k-points (npk) =  40000
     Max angular momentum in pseudopotentials (lmaxx) =  3
               file Si.pbe-nl-kjpaw_psl.1.0.0.UPF: wavefunction(s)  3S 3P renormalized

     Subspace diagonalization in iterative solution of the eigenvalue problem:
     a serial algorithm will be used

     Message from routine setup:
     DEPRECATED: symmetry with ibrav=0, use correct ibrav instead
 
     Parallelization info
     --------------------
     sticks:   dense  smooth     PW     G-vecs:    dense   smooth      PW
     Min         370     370    106                59490    59490    9361
     Max         371     371    108                59496    59496    9370
     Sum        1481    1481    429               237971   237971   37463
 

     Title: 
     Relaxation of atomic positions for single monolayer slab of Si using PBE   


     bravais-lattice index     =            0
     lattice parameter (alat)  =      10.2803  a.u.
     unit-cell volume          =    6084.2350 (a.u.)^3
     number of atoms/cell      =           32
     number of atomic types    =            1
     number of electrons       =       128.00
     number of Kohn-Sham states=           96
     kinetic-energy cutoff     =      45.0000  Ry
     charge density cutoff     =     175.0000  Ry
     convergence threshold     =      1.0E-08
     mixing beta               =       0.5000
     number of iterations used =            8  local-TF  mixing
     Exchange-correlation      = SLA PW PBX PBC ( 1  4  3  4 0 0)

     celldm(1)=  10.280305  celldm(2)=   0.000000  celldm(3)=   0.000000
     celldm(4)=   0.000000  celldm(5)=   0.000000  celldm(6)=   0.000000

     crystal axes: (cart. coord. in units of alat)
               a(1) = (   1.000000   0.000000   0.000000 )  
               a(2) = (   0.000000   1.000000   0.000000 )  
               a(3) = (   0.000000   0.000000   5.600000 )  

     reciprocal axes: (cart. coord. in units 2 pi/alat)
               b(1) = (  1.000000  0.000000  0.000000 )  
               b(2) = (  0.000000  1.000000  0.000000 )  
               b(3) = (  0.000000  0.000000  0.178571 )  


     PseudoPot. # 1 for Si read from file:
     /share/pseudo/Si.pbe-nl-kjpaw_psl.1.0.0.UPF
     MD5 check sum: 3686bff6734aab787fb18a3c8374d51f
     Pseudo is Projector augmented-wave + core cor, Zval =  4.0
     Generated using "atomic" code by A. Dal Corso v.6.3
     Shape of augmentation charge: PSQ
     Using radial grid of 1141 points,  4 beta functions with: 
                l(1) =   0
                l(2) =   0
                l(3) =   1
                l(4) =   1
     Q(r) pseudized with 0 coefficients 


     atomic species   valence    mass     pseudopotential
        Si             4.00    28.08600     Si( 1.00)

      2 Sym. Ops. (no inversion) found



   Cartesian axes

     site n.     atom                  positions (alat units)
         1           Si  tau(   1) = (   0.0020536   0.0020536   0.7762916  )
         2           Si  tau(   2) = (   0.0020166   0.5020106   1.3041714  )
         3           Si  tau(   3) = (   0.5020106   0.0020166   1.3041714  )
         4           Si  tau(   4) = (   0.5020587   0.5020587   0.8312717  )
         5           Si  tau(   5) = (   0.2401214   0.2401214   1.0521219  )
         6           Si  tau(   6) = (   0.2525283   0.7514906   1.5554727  )
         7           Si  tau(   7) = (   0.7514906   0.2525283   1.5554727  )
         8           Si  tau(   8) = (   0.7639943   0.7639943   1.0521292  )
         9           Si  tau(   9) = (   0.0019907   0.0019907   1.8075103  )
        10           Si  tau(  10) = (   0.0019487   0.5019475   2.3128736  )
        11           Si  tau(  11) = (   0.5019475   0.0019487   2.3128736  )
        12           Si  tau(  12) = (   0.5019825   0.5019825   1.8085565  )
        13           Si  tau(  13) = (   0.2519655   0.2519655   2.0604216  )
        14           Si  tau(  14) = (   0.2511362   0.7527391   2.5652728  )
        15           Si  tau(  15) = (   0.7527391   0.2511362   2.5652728  )
        16           Si  tau(  16) = (   0.7519963   0.7519963   2.0604145  )
        17           Si  tau(  17) = (   0.0018984   0.0018984   2.8200458  )
        18           Si  tau(  18) = (   0.0018497   0.5018506   3.3219855  )
        19           Si  tau(  19) = (   0.5018506   0.0018497   3.3219855  )
        20           Si  tau(  20) = (   0.5018904   0.5018904   2.8149608  )
        21           Si  tau(  21) = (   0.2539675   0.2539675   3.0698091  )
        22           Si  tau(  22) = (   0.2457329   0.7579445   3.5740867  )
        23           Si  tau(  23) = (   0.7579445   0.2457329   3.5740867  )
        24           Si  tau(  24) = (   0.7497989   0.7497989   3.0697987  )
        25           Si  tau(  25) = (   0.0017864   0.0017864   3.8447824  )
        26           Si  tau(  26) = (   0.0017178   0.5016840   4.3359123  )
        27           Si  tau(  27) = (   0.5016840   0.0017178   4.3359123  )
        28           Si  tau(  28) = (   0.5017862   0.5017862   3.8078530  )
        29           Si  tau(  29) = (   0.2653552   0.2653552   4.0802529  )
        30           Si  tau(  30) = (   0.1487795   0.8546026   4.5289075  )
        31           Si  tau(  31) = (   0.8546026   0.1487795   4.5289075  )
        32           Si  tau(  32) = (   0.7381959   0.7381959   4.0802710  )

     number of k points=    21  gaussian smearing, width (Ry)=  0.0100
                       cart. coord. in units 2pi/alat
        k(    1) = (   0.0000000   0.0000000   0.0000000), wk =   0.0312500
        k(    2) = (   0.0000000   0.1250000   0.0000000), wk =   0.1250000
        k(    3) = (   0.0000000   0.2500000   0.0000000), wk =   0.1250000
        k(    4) = (   0.0000000   0.3750000   0.0000000), wk =   0.1250000
        k(    5) = (   0.0000000  -0.5000000   0.0000000), wk =   0.0625000
        k(    6) = (   0.1250000   0.1250000   0.0000000), wk =   0.0625000
        k(    7) = (   0.1250000   0.2500000   0.0000000), wk =   0.1250000
        k(    8) = (   0.1250000   0.3750000   0.0000000), wk =   0.1250000
        k(    9) = (   0.1250000  -0.5000000   0.0000000), wk =   0.1250000
        k(   10) = (   0.2500000   0.2500000   0.0000000), wk =   0.0625000
        k(   11) = (   0.2500000   0.3750000   0.0000000), wk =   0.1250000
        k(   12) = (   0.2500000  -0.5000000   0.0000000), wk =   0.1250000
        k(   13) = (   0.3750000   0.3750000   0.0000000), wk =   0.0625000
        k(   14) = (   0.3750000  -0.5000000   0.0000000), wk =   0.1250000
        k(   15) = (  -0.5000000  -0.5000000   0.0000000), wk =   0.0312500
        k(   16) = (  -0.1250000   0.1250000   0.0000000), wk =   0.0625000
        k(   17) = (  -0.1250000   0.2500000   0.0000000), wk =   0.1250000
        k(   18) = (  -0.1250000   0.3750000   0.0000000), wk =   0.1250000
        k(   19) = (  -0.2500000   0.2500000   0.0000000), wk =   0.0625000
        k(   20) = (  -0.2500000   0.3750000   0.0000000), wk =   0.1250000
        k(   21) = (  -0.3750000   0.3750000   0.0000000), wk =   0.0625000

     Dense  grid:   237971 G-vectors     FFT dimensions: (  45,  45, 243)

     Estimated max dynamical RAM per process >     128.73 MB

     Estimated total dynamical RAM >       7.54 GB

     Initial potential from superposition of free atoms

     starting charge  127.98210, renormalised to  128.00000

     negative rho (up, down):  9.308E-06 0.000E+00
     Starting wfcs are  128 randomized atomic wfcs
     Checking if some PAW data can be deallocated... 

     total cpu time spent up to now is        5.8 secs

     Self-consistent Calculation

     iteration #  1     ecut=    45.00 Ry     beta= 0.50
     CG style diagonalization
     ethr =  1.00E-02,  avg # of iterations =  3.4

     Threshold (ethr) on eigenvalues was too large:
     Diagonalizing with lowered threshold

     CG style diagonalization
     ethr =  7.90E-04,  avg # of iterations =  2.2

     total cpu time spent up to now is       63.2 secs

     total energy              =   -1494.84578283 Ry
     Harris-Foulkes estimate   =   -1494.97396515 Ry
     estimated scf accuracy    <       1.03260961 Ry

     iteration #  2     ecut=    45.00 Ry     beta= 0.50
     CG style diagonalization
     ethr =  8.07E-04,  avg # of iterations =  3.0

     total cpu time spent up to now is       85.5 secs

     total energy              =   -1494.73263819 Ry
     Harris-Foulkes estimate   =   -1494.86948214 Ry
     estimated scf accuracy    <       0.53156800 Ry

     iteration #  3     ecut=    45.00 Ry     beta= 0.50
     CG style diagonalization
     ethr =  4.15E-04,  avg # of iterations =  3.0

     total cpu time spent up to now is      107.9 secs

     total energy              =   -1494.77012644 Ry
     Harris-Foulkes estimate   =   -1494.77290902 Ry
     estimated scf accuracy    <       0.08458858 Ry

     iteration #  4     ecut=    45.00 Ry     beta= 0.50
     CG style diagonalization
     c_bands:  1 eigenvalues not converged
     ethr =  6.61E-05,  avg # of iterations =  4.0

     total cpu time spent up to now is      140.4 secs

     total energy              =   -1494.77804215 Ry
     Harris-Foulkes estimate   =   -1494.77916360 Ry
     estimated scf accuracy    <       0.02309420 Ry

     iteration #  5     ecut=    45.00 Ry     beta= 0.50
     CG style diagonalization
     c_bands:  1 eigenvalues not converged
     ethr =  1.80E-05,  avg # of iterations =  4.0

     total cpu time spent up to now is      170.9 secs

     total energy              =   -1494.77912010 Ry
     Harris-Foulkes estimate   =   -1494.78033476 Ry
     estimated scf accuracy    <       0.01620439 Ry

     iteration #  6     ecut=    45.00 Ry     beta= 0.50
     CG style diagonalization
     c_bands:  1 eigenvalues not converged
     ethr =  1.27E-05,  avg # of iterations =  3.1

     total cpu time spent up to now is      193.4 secs

     total energy              =   -1494.77830807 Ry
     Harris-Foulkes estimate   =   -1494.77960837 Ry
     estimated scf accuracy    <       0.01279730 Ry

     iteration #  7     ecut=    45.00 Ry     beta= 0.50
     CG style diagonalization
     ethr =  1.00E-05,  avg # of iterations =  3.1

     total cpu time spent up to now is      217.5 secs

     total energy              =   -1494.77846639 Ry
     Harris-Foulkes estimate   =   -1494.77869119 Ry
     estimated scf accuracy    <       0.00713872 Ry

     iteration #  8     ecut=    45.00 Ry     beta= 0.50
     CG style diagonalization
     c_bands:  2 eigenvalues not converged
     ethr =  5.58E-06,  avg # of iterations =  3.4

     negative rho (up, down):  1.485E-05 0.000E+00

     total cpu time spent up to now is      245.8 secs

     total energy              =   -1494.77889153 Ry
     Harris-Foulkes estimate   =   -1494.77897272 Ry
     estimated scf accuracy    <       0.00094223 Ry

     iteration #  9     ecut=    45.00 Ry     beta= 0.50
     CG style diagonalization
     c_bands:  1 eigenvalues not converged
     c_bands:  1 eigenvalues not converged
     ethr =  7.36E-07,  avg # of iterations =  4.0

     total cpu time spent up to now is      277.8 secs

     total energy              =   -1494.77892516 Ry
     Harris-Foulkes estimate   =   -1494.77899825 Ry
     estimated scf accuracy    <       0.00065334 Ry

     iteration # 10     ecut=    45.00 Ry     beta= 0.50
     CG style diagonalization
     c_bands:  1 eigenvalues not converged
     ethr =  5.10E-07,  avg # of iterations =  3.1

     negative rho (up, down):  2.882E-03 0.000E+00

     total cpu time spent up to now is      303.9 secs

     total energy              =   -1494.77895992 Ry
     Harris-Foulkes estimate   =   -1494.77894862 Ry
     estimated scf accuracy    <       0.00038044 Ry

     iteration # 11     ecut=    45.00 Ry     beta= 0.50
     CG style diagonalization
     c_bands:  1 eigenvalues not converged
     ethr =  2.97E-07,  avg # of iterations =  3.2

     negative rho (up, down):  7.591E-04 0.000E+00

     total cpu time spent up to now is      331.4 secs

     total energy              =   -1494.77895650 Ry
     Harris-Foulkes estimate   =   -1494.77901849 Ry
     estimated scf accuracy    <       0.00006648 Ry

     iteration # 12     ecut=    45.00 Ry     beta= 0.50
     CG style diagonalization
     ethr =  5.19E-08,  avg # of iterations =  3.3

     negative rho (up, down):  1.014E-05 0.000E+00

     total cpu time spent up to now is      359.3 secs

     total energy              =   -1494.77895886 Ry
     Harris-Foulkes estimate   =   -1494.77896660 Ry
     estimated scf accuracy    <       0.00001660 Ry

     iteration # 13     ecut=    45.00 Ry     beta= 0.50
     CG style diagonalization
     ethr =  1.30E-08,  avg # of iterations =  3.4

     negative rho (up, down):  3.132E-05 0.000E+00

     total cpu time spent up to now is      388.1 secs

     total energy              =   -1494.77896032 Ry
     Harris-Foulkes estimate   =   -1494.77896149 Ry
     estimated scf accuracy    <       0.00000386 Ry

     iteration # 14     ecut=    45.00 Ry     beta= 0.50
     CG style diagonalization
     ethr =  3.02E-09,  avg # of iterations =  3.2

     negative rho (up, down):  6.200E-07 0.000E+00

     total cpu time spent up to now is      415.9 secs

     total energy              =   -1494.77896124 Ry
     Harris-Foulkes estimate   =   -1494.77896089 Ry
     estimated scf accuracy    <       0.00000071 Ry

     iteration # 15     ecut=    45.00 Ry     beta= 0.50
     CG style diagonalization
     ethr =  5.52E-10,  avg # of iterations =  3.5

     negative rho (up, down):  9.414E-08 0.000E+00

     total cpu time spent up to now is      443.3 secs

     total energy              =   -1494.77896145 Ry
     Harris-Foulkes estimate   =   -1494.77896140 Ry
     estimated scf accuracy    <       0.00000021 Ry

     iteration # 16     ecut=    45.00 Ry     beta= 0.50
     CG style diagonalization
     ethr =  1.68E-10,  avg # of iterations =  3.1

     negative rho (up, down):  2.292E-07 0.000E+00

     total cpu time spent up to now is      469.4 secs

     total energy              =   -1494.77896144 Ry
     Harris-Foulkes estimate   =   -1494.77896147 Ry
     estimated scf accuracy    <       0.00000009 Ry

     iteration # 17     ecut=    45.00 Ry     beta= 0.50
     CG style diagonalization
     ethr =  6.67E-11,  avg # of iterations =  3.3

     negative rho (up, down):  4.667E-07 0.000E+00

     total cpu time spent up to now is      497.1 secs

     total energy              =   -1494.77896145 Ry
     Harris-Foulkes estimate   =   -1494.77896146 Ry
     estimated scf accuracy    <       0.00000002 Ry

     iteration # 18     ecut=    45.00 Ry     beta= 0.50
     CG style diagonalization
     ethr =  1.48E-11,  avg # of iterations =  3.4

     negative rho (up, down):  3.938E-07 0.000E+00

     total cpu time spent up to now is      522.9 secs

     End of self-consistent calculation

          k = 0.0000 0.0000 0.0000 ( 30983 PWs)   bands (ev):

    -8.8716  -8.7096  -8.4240  -8.0061  -7.4606  -6.8018  -6.0493  -5.2182
    -4.8188  -4.8000  -4.7870  -4.7842  -4.7674  -4.7626  -4.7093  -4.7078
    -4.6969  -4.6928  -4.6636  -4.6624  -4.6340  -4.4830  -4.3081  -3.6158
    -3.5520  -3.3704  -2.4187  -1.4705  -1.0578  -0.7679  -0.7228  -0.7210
    -0.6552  -0.5715  -0.4015  -0.4009  -0.3922  -0.2554  -0.0816  -0.0655
    -0.0499   0.1449   0.2447   0.2529   0.3150   0.4418   0.4441   0.4464
     0.6837   0.7346   0.9974   1.1205   1.2902   1.4236   1.6060   1.9214
     2.0139   2.1618   2.2639   2.3503   2.4278   2.5625   2.6658   2.7924
     2.8234   3.0811   3.6690   3.6912   3.8841   3.9482   3.9724   3.9816
     4.0929   4.1812   4.2234   4.3823   4.6260   4.6423   4.7737   4.8098
     4.9704   5.1379   5.1524   5.2441   5.3513   5.4050   5.5986   5.6332
     5.8017   5.8811   6.0638   6.2210   6.2457   6.3409   6.5349   6.5391

          k = 0.0000 0.1250 0.0000 ( 30990 PWs)   bands (ev):

    -8.8040  -8.6430  -8.3589  -7.9435  -7.4022  -6.7502  -6.0122  -5.6861
    -5.5725  -5.4272  -5.2516  -5.1669  -5.0722  -4.9376  -4.8247  -4.7042
    -4.5593  -4.3853  -4.3115  -4.1892  -4.0066  -3.8744  -3.8288  -3.5341
    -3.3578  -3.2540  -2.4480  -1.5882  -1.1497  -1.0637  -0.9482  -0.7226
    -0.6614  -0.5510  -0.3208  -0.2521  -0.2357  -0.1383  -0.0226   0.0094
     0.0564   0.0665   0.0887   0.2013   0.2311   0.2749   0.2849   0.3932
     0.5582   0.5981   0.8953   0.9474   1.0365   1.4130   1.5152   1.6500
     1.9949   2.0899   2.1868   2.2719   2.4639   2.5066   2.5700   2.6348
     2.9514   3.1134   3.9113   4.0423   4.0658   4.1435   4.1535   4.2477
     4.3142   4.3404   4.5645   4.6196   4.7158   4.8675   4.9217   5.0439
     5.0921   5.1505   5.2107   5.4405   5.4934   5.6225   5.7222   5.8577
     5.8895   5.9489   6.1256   6.1781   6.2882   6.3197   6.4892   6.6685

          k = 0.0000 0.2500 0.0000 ( 30990 PWs)   bands (ev):

    -8.6022  -8.4446  -8.1654  -7.7585  -7.2322  -6.6209  -6.4896  -6.3449
    -6.1484  -5.9139  -5.8057  -5.5487  -5.2339  -5.0754  -4.9409  -4.6863
    -4.4332  -4.2916  -4.1495  -3.8523  -3.6057  -3.4421  -3.1959  -2.9880
    -2.8532  -2.6651  -2.4801  -1.8242  -1.3065  -1.2430  -1.1492  -0.9380
    -0.8832  -0.6497  -0.4122  -0.3946  -0.3608  -0.3184  -0.1890  -0.1037
    -0.0463   0.0893   0.2148   0.2448   0.2802   0.2887   0.3308   0.3977
     0.4328   0.5391   0.6063   0.7145   0.8213   0.9832   1.2330   1.4329
     1.5423   1.8179   1.9507   2.2870   2.3646   2.3700   2.5408   2.7347
     3.0609   3.2486   3.9472   4.3551   4.4858   4.5241   4.6883   4.8133
     4.9519   4.9838   5.0457   5.0926   5.2021   5.2384   5.3602   5.4396
     5.5637   5.6202   5.6825   5.7670   5.8955   5.9625   6.0460   6.0807
     6.2706   6.3115   6.3838   6.5340   6.5350   6.6271   6.6398   6.7079

          k = 0.0000 0.3750 0.0000 ( 30976 PWs)   bands (ev):

    -8.2695  -8.1202  -7.8519  -7.4700  -7.2040  -7.0767  -6.9353  -6.7764
    -6.4827  -6.2983  -6.0454  -5.6723  -5.5582  -5.1425  -4.9349  -4.7042
    -4.3352  -4.2297  -3.9319  -3.6622  -3.4773  -3.1745  -2.9459  -2.6484
    -2.4180  -2.1090  -1.9266  -1.7121  -1.5098  -1.2640  -1.2544  -1.0775
    -0.9372  -0.8241  -0.7952  -0.7801  -0.6559  -0.5290  -0.4271  -0.4165
    -0.3064  -0.1769  -0.0914   0.1108   0.1772   0.2191   0.4057   0.4338
     0.6060   0.7094   0.7817   0.8514   0.8940   1.0314   1.0396   1.1017
     1.2176   1.4800   1.7626   1.9379   2.1185   2.4501   2.6952   2.8918
     3.1414   3.4911   4.0550   4.1271   4.5854   4.8674   4.9356   5.0360
     5.2732   5.4463   5.5591   5.7006   5.8666   5.9325   6.0318   6.1496
     6.1897   6.1989   6.3033   6.3348   6.3758   6.4555   6.5169   6.6066
     6.6720   6.7638   6.7959   6.8755   6.9819   7.0565   7.0914   7.1407

          k = 0.0000-0.5000 0.0000 ( 30950 PWs)   bands (ev):

    -7.8637  -7.7887  -7.7177  -7.5983  -7.4447  -7.3156  -7.0624  -6.9320
    -6.5716  -6.4662  -6.0166  -5.9232  -5.4294  -5.3370  -4.8449  -4.7500
    -4.3024  -4.1862  -3.8205  -3.6513  -3.3611  -3.1236  -2.8625  -2.5796
    -2.3209  -2.0069  -1.7553  -1.4431  -1.2047  -1.1472  -1.1033  -1.0912
    -1.0878  -0.9837  -0.8346  -0.8227  -0.7679  -0.7206  -0.6993  -0.5618
    -0.4402  -0.3756  -0.2595  -0.2526   0.0819   0.1424   0.3021   0.3549
     0.6131   0.7242   0.8306   0.8367   1.0292   1.2116   1.2329   1.3119
     1.3387   1.5530   1.5549   1.5894   1.6777   2.5413   2.8019   2.8338
     3.5344   3.5717   3.6436   4.2398   4.5627   4.8869   5.2019   5.3609
     5.5692   5.5881   5.6058   5.7322   5.8054   5.9460   6.2166   6.2838
     6.3163   6.3858   6.5261   6.5822   6.6522   6.7206   6.9695   7.0564
     7.1373   7.2042   7.3172   7.4316   7.4702   7.5595   7.6055   7.6300

          k = 0.1250 0.1250 0.0000 ( 30989 PWs)   bands (ev):

    -8.7368  -8.5768  -8.2943  -7.8817  -7.3448  -6.6999  -5.9773  -5.6563
    -5.6542  -5.5758  -5.5532  -5.4989  -5.4681  -5.2272  -5.0897  -5.0469
    -4.3742  -3.9692  -3.9343  -3.9008  -3.8524  -3.8443  -3.8027  -3.4559
    -2.9454  -2.9185  -2.6113  -1.7888  -1.0790  -1.0307  -1.0071  -0.7913
    -0.7756  -0.6756  -0.4290  -0.4085  -0.3382  -0.1852  -0.0643  -0.0393
     0.0461   0.0505   0.1213   0.2205   0.2541   0.3348   0.3394   0.4148
     0.5698   0.6023   0.7273   0.8403   1.2096   1.2197   1.3634   1.6727
     1.7347   2.0326   2.1972   2.3875   2.4051   2.5038   2.6145   2.6716
     2.9793   3.0276   3.9150   4.0559   4.1055   4.1306   4.2043   4.3618
     4.4127   4.6796   4.7448   4.9570   4.9740   5.0474   5.0765   5.1812
     5.2926   5.3728   5.4184   5.5322   5.6620   5.7306   5.7447   5.8096
     5.9548   6.0597   6.2198   6.3621   6.3734   6.4745   6.5164   6.5588

          k = 0.1250 0.2500 0.0000 ( 30993 PWs)   bands (ev):

    -8.5361  -8.3796  -8.1024  -7.6992  -7.1790  -6.5778  -6.4429  -6.3050
    -6.1273  -5.9234  -5.7970  -5.6811  -5.5956  -5.4103  -5.3036  -4.9885
    -4.4280  -3.8910  -3.8780  -3.7639  -3.5969  -3.4745  -3.1867  -2.9376
    -2.9066  -2.4655  -2.4398  -2.0876  -1.4438  -1.0395  -1.0254  -0.9036
    -0.7907  -0.7832  -0.7322  -0.6232  -0.4655  -0.3738  -0.2520  -0.1210
     0.0169   0.1115   0.1883   0.2825   0.3960   0.4412   0.4674   0.4682
     0.5432   0.5912   0.6755   0.6948   0.8848   0.9945   1.1340   1.4739
     1.6065   1.9400   2.1692   2.1932   2.3920   2.4470   2.6245   2.6374
     2.9624   3.2265   4.1865   4.3619   4.4045   4.5480   4.6057   4.6307
     4.8692   4.9090   4.9181   5.2078   5.2818   5.3636   5.4485   5.5477
     5.5957   5.6290   5.7954   5.8485   6.0514   6.0759   6.2222   6.2922
     6.3433   6.3752   6.4623   6.5138   6.6215   6.7147   6.7285   6.8703

          k = 0.1250 0.3750 0.0000 ( 31004 PWs)   bands (ev):

    -8.2051  -8.0572  -7.7920  -7.4156  -7.1487  -7.0269  -6.8895  -6.7350
    -6.4591  -6.2741  -6.0652  -5.7303  -5.6327  -5.4190  -5.3511  -4.8847
    -4.4187  -3.9300  -3.8243  -3.7299  -3.4785  -3.2377  -3.0926  -2.7024
    -2.6492  -2.2472  -2.1250  -1.8327  -1.7368  -1.2850  -1.0787  -1.0247
    -1.0242  -0.8504  -0.7748  -0.6648  -0.5796  -0.4078  -0.2631  -0.1871
    -0.1271  -0.0104   0.0863   0.1256   0.2406   0.3310   0.4683   0.5005
     0.5657   0.7059   0.8543   0.8936   0.9890   1.0477   1.0967   1.3047
     1.4096   1.6112   1.7555   1.9275   2.0389   2.5080   2.7391   2.7609
     3.0502   3.4915   4.3690   4.5021   4.6485   4.9532   5.0237   5.1459
     5.2271   5.4040   5.4827   5.5991   5.6444   5.7839   5.8331   5.8717
     5.9502   5.9946   6.1092   6.1920   6.2702   6.4826   6.5208   6.6752
     6.7002   6.8148   6.8546   6.9317   7.0484   7.0620   7.1961   7.2844

          k = 0.1250-0.5000 0.0000 ( 31002 PWs)   bands (ev):

    -7.7994  -7.7283  -7.6571  -7.5415  -7.3892  -7.2658  -7.0168  -6.8947
    -6.5453  -6.4529  -6.0308  -5.9598  -5.5412  -5.4934  -5.2640  -4.8028
    -4.3128  -3.9518  -3.9126  -3.5946  -3.5492  -3.1788  -3.1174  -2.7247
    -2.6160  -2.2373  -2.0727  -1.7091  -1.5202  -1.2044  -1.0923  -1.0799
    -1.0379  -0.9351  -0.9016  -0.7966  -0.6575  -0.6102  -0.3752  -0.2590
    -0.1876  -0.0379   0.0391   0.1068   0.2833   0.4046   0.5354   0.6064
     0.6531   0.8602   0.9672   0.9988   1.0581   1.0876   1.1673   1.3513
     1.3762   1.4903   1.5269   1.5819   1.6779   2.4790   2.7616   2.8147
     3.4168   3.6389   4.0244   4.4989   4.7799   4.9305   5.2233   5.3722
     5.4804   5.5837   5.6061   5.6948   5.7965   5.9678   6.1943   6.2955
     6.3835   6.4185   6.4974   6.5603   6.6550   6.6797   6.7104   6.8258
     6.8689   6.9101   7.0159   7.0418   7.1230   7.1532   7.2309   7.2796

          k = 0.2500 0.2500 0.0000 ( 31008 PWs)   bands (ev):

    -8.3385  -8.1859  -7.9156  -7.5249  -7.0272  -6.4779  -6.3140  -6.3110
    -6.2214  -6.2049  -6.1409  -6.1122  -5.8337  -5.7683  -5.6872  -5.0640
    -4.4529  -3.8662  -3.6617  -3.6509  -3.4407  -3.3622  -3.2227  -3.0983
    -3.0650  -2.6178  -2.2072  -2.0240  -2.0173  -1.3908  -1.1728  -0.7998
    -0.7412  -0.4958  -0.4872  -0.4858  -0.4668  -0.3883  -0.2877  -0.2206
    -0.1582  -0.1399   0.1443   0.4245   0.4263   0.4778   0.6528   0.7153
     0.7187   0.8091   0.8452   0.9001   0.9873   1.1423   1.4566   1.5644
     1.6848   1.8367   2.0103   2.2418   2.5353   2.5571   2.5727   2.6563
     2.8582   3.3865   4.3028   4.4754   4.5307   4.6771   4.7501   4.8232
     4.8370   4.9607   5.1303   5.1796   5.2169   5.3198   5.4330   5.4437
     5.6540   5.8837   6.0448   6.0936   6.2443   6.3246   6.3539   6.4272
     6.4687   6.6237   6.7039   6.7688   6.8787   6.9889   7.1597   7.2299

          k = 0.2500 0.3750 0.0000 ( 31049 PWs)   bands (ev):

    -8.0133  -7.8699  -7.6148  -7.2566  -6.9877  -6.8851  -6.7646  -6.6314
    -6.4224  -6.2531  -6.1856  -6.1334  -5.9313  -5.8374  -5.7762  -5.2498
    -4.3482  -3.8667  -3.6940  -3.6733  -3.5796  -3.3935  -3.3475  -3.1332
    -2.9419  -2.6216  -2.4899  -2.0648  -1.9492  -1.6956  -1.3411  -1.2030
    -0.8496  -0.7418  -0.6773  -0.4246  -0.1984  -0.1363  -0.0164   0.1068
     0.1550   0.2656   0.3385   0.4094   0.5183   0.6625   0.7296   0.8668
     0.9324   0.9406   1.0396   1.1084   1.1592   1.1977   1.3234   1.3832
     1.5861   1.7831   1.8050   1.9929   2.1776   2.4821   2.6828   2.7624
     2.9954   3.5891   4.6989   4.8759   4.9989   5.0245   5.0517   5.1111
     5.1557   5.2153   5.2472   5.2863   5.3804   5.5414   5.6543   5.8037
     5.9740   6.0191   6.1498   6.2478   6.3761   6.4301   6.4607   6.4765
     6.5517   6.6814   6.8590   6.9251   6.9824   7.0191   7.1204   7.2610

          k = 0.2500-0.5000 0.0000 ( 31080 PWs)   bands (ev):

    -7.6090  -7.5490  -7.4779  -7.3748  -7.2275  -7.1229  -6.8903  -6.7952
    -6.4890  -6.4362  -6.1194  -6.0958  -5.9061  -5.8244  -5.7662  -5.3268
    -4.2567  -3.7221  -3.7034  -3.6922  -3.6708  -3.5253  -3.4238  -3.1392
    -3.0530  -2.6228  -2.5742  -2.0962  -2.0605  -1.6150  -1.5713  -1.3045
    -1.0486  -0.9249  -0.5963  -0.4184  -0.1781   0.0306   0.1371   0.3329
     0.4119   0.4828   0.5408   0.5691   0.6850   0.7381   0.7972   0.8806
     0.9417   1.0732   1.0850   1.1918   1.2290   1.3001   1.4083   1.4693
     1.5008   1.5455   1.5895   1.6411   1.7558   2.3789   2.7422   2.8173
     3.2537   3.7081   4.6185   5.0311   5.0921   5.2149   5.2909   5.3195
     5.4362   5.4930   5.5598   5.6993   5.8121   5.9228   5.9418   5.9537
     6.0932   6.1241   6.1373   6.2132   6.3351   6.3700   6.3945   6.4646
     6.5390   6.6088   6.6592   6.7381   6.8095   6.8615   6.8844   6.9867

          k = 0.3750 0.3750 0.0000 ( 31070 PWs)   bands (ev):

    -7.6990  -7.5665  -7.3335  -7.0208  -6.7663  -6.7214  -6.6931  -6.6097
    -6.5898  -6.5340  -6.5145  -6.2462  -6.2270  -6.0962  -6.0430  -5.6190
    -4.3199  -3.7562  -3.7370  -3.7277  -3.6769  -3.5462  -3.3610  -3.3290
    -3.1603  -2.8835  -2.8649  -2.5921  -2.0216  -1.9385  -1.6147  -1.4746
    -1.1388  -0.6353  -0.4271  -0.4132  -0.0766   0.1393   0.2138   0.4812
     0.5569   0.6418   0.8012   0.8244   0.9414   0.9845   1.0773   1.1072
     1.1499   1.1607   1.2837   1.3206   1.3322   1.4172   1.4790   1.5566
     1.6702   1.7867   2.0000   2.1637   2.2410   2.3477   2.7527   2.8220
     2.9802   3.6948   4.5528   4.8448   4.8910   4.9628   5.0493   5.1864
     5.2180   5.2688   5.3494   5.4777   5.5116   5.6833   5.8316   5.9434
     6.0724   6.2800   6.3078   6.3312   6.3440   6.4463   6.4860   6.4920
     6.5414   6.5537   6.5559   6.6137   6.6472   6.6693   6.6792   6.7730

          k = 0.3750-0.5000 0.0000 ( 31102 PWs)   bands (ev):

    -7.3021  -7.2580  -7.1903  -7.1116  -6.9791  -6.9127  -6.7259  -6.6810
    -6.5041  -6.4861  -6.4102  -6.4063  -6.3707  -6.1996  -6.1115  -5.7702
    -4.3157  -3.7798  -3.7603  -3.7367  -3.6968  -3.4573  -3.3895  -3.3381
    -3.2556  -3.0944  -2.9296  -2.6017  -2.4374  -2.1342  -1.8450  -1.5713
    -0.8859  -0.6702  -0.4972  -0.2061  -0.0431   0.1642   0.2768   0.4744
     0.6659   0.7186   0.9030   1.1120   1.1669   1.2232   1.2331   1.3021
     1.3873   1.4056   1.4424   1.5150   1.5542   1.5916   1.6138   1.6786
     1.7294   1.7538   1.7919   1.9507   2.1405   2.3027   2.7460   2.8315
     3.0704   3.7220   4.7813   4.9087   4.9988   5.0501   5.1362   5.2184
     5.2794   5.4232   5.4685   5.4739   5.5706   5.6110   5.6834   5.7477
     5.9334   6.0436   6.0965   6.1811   6.2411   6.2429   6.2994   6.3241
     6.3283   6.3759   6.4015   6.4176   6.5089   6.5629   6.6411   6.7072

          k =-0.5000-0.5000 0.0000 ( 31016 PWs)   bands (ev):

    -6.9571  -6.9068  -6.8632  -6.8588  -6.8290  -6.8272  -6.7505  -6.7465
    -6.7046  -6.6993  -6.6646  -6.6507  -6.5703  -6.3610  -6.2338  -5.9318
    -4.3494  -3.8284  -3.8010  -3.7948  -3.7379  -3.4713  -3.3812  -3.3627
    -3.2343  -3.0032  -2.8474  -2.8461  -2.7149  -2.6317  -1.9119  -1.5751
    -0.8142  -0.4495  -0.4476  -0.4145  -0.1671   0.2653   0.3196   0.3576
     0.6499   1.0084   1.0218   1.1773   1.1958   1.3778   1.5354   1.6870
     1.7006   1.7023   1.7103   1.7388   1.7609   1.7750   1.7754   1.7870
     1.8008   1.8207   1.9365   2.1191   2.2554   2.3586   2.7286   2.8025
     2.9921   3.6972   4.5656   4.6813   4.8392   4.9130   4.9368   5.0688
     5.2378   5.3475   5.3574   5.3826   5.4418   5.4470   5.4836   5.5046
     5.5256   5.6450   6.0433   6.2502   6.3044   6.3229   6.3288   6.4225
     6.4505   6.4767   6.4790   6.4864   6.5980   6.6621   6.7061   6.7670

          k =-0.1250 0.1250 0.0000 ( 30989 PWs)   bands (ev):

    -8.7368  -8.5767  -8.2942  -7.8817  -7.3451  -6.7013  -5.9778  -5.6896
    -5.6513  -5.6252  -5.5465  -5.5170  -5.4787  -5.3889  -5.2192  -4.3425
    -3.9730  -3.9388  -3.9270  -3.8750  -3.8679  -3.8307  -3.7773  -3.6993
    -3.6724  -3.2455  -2.4193  -1.6349  -1.2163  -1.0129  -0.9531  -0.9177
    -0.7164  -0.6019  -0.4102  -0.3560  -0.2381  -0.1643  -0.1011  -0.0458
     0.0174   0.0863   0.1607   0.1730   0.3274   0.3336   0.3552   0.4680
     0.5587   0.5631   0.7832   0.9155   1.0921   1.2971   1.5025   1.5718
     1.9340   1.9768   2.1800   2.2780   2.3630   2.4471   2.7092   2.7893
     3.0001   3.0952   3.9361   4.0220   4.1432   4.1934   4.2272   4.3700
     4.4667   4.5379   4.7194   4.7908   4.9222   4.9523   5.0208   5.1693
     5.2835   5.3515   5.4656   5.5079   5.5478   5.5803   5.8398   5.9025
     5.9062   5.9615   6.0114   6.2999   6.4509   6.4872   6.6112   6.7062

          k =-0.1250 0.2500 0.0000 ( 30993 PWs)   bands (ev):

    -8.5360  -8.3793  -8.1021  -7.6989  -7.1786  -6.5748  -6.4462  -6.3185
    -6.1470  -5.9344  -5.8450  -5.7194  -5.5967  -5.5632  -5.2230  -4.4929
    -4.0142  -3.9859  -3.8736  -3.8560  -3.7481  -3.5121  -3.3013  -3.1864
    -2.9555  -2.8189  -2.5571  -1.9259  -1.3815  -1.1432  -1.0085  -0.9352
    -0.8429  -0.7621  -0.6910  -0.5083  -0.4130  -0.3579  -0.1615  -0.0843
     0.0193   0.1358   0.2692   0.2848   0.3692   0.4600   0.4701   0.5214
     0.5355   0.6328   0.6538   0.7474   0.9559   1.0175   1.2953   1.5177
     1.6290   1.9839   2.1664   2.2285   2.2632   2.3584   2.4490   2.9402
     3.0976   3.3363   4.1403   4.1684   4.3957   4.4315   4.5091   4.6539
     4.6814   4.9108   4.9961   5.0973   5.2611   5.3093   5.4686   5.4887
     5.5636   5.5673   5.6754   5.8856   6.0171   6.0572   6.1811   6.2226
     6.3497   6.3725   6.4953   6.5496   6.6026   6.6994   6.7837   6.8294

          k =-0.1250 0.3750 0.0000 ( 31004 PWs)   bands (ev):

    -8.2051  -8.0567  -7.7910  -7.4132  -7.1496  -7.0259  -6.8915  -6.7446
    -6.4648  -6.2892  -6.0838  -5.7483  -5.6751  -5.5015  -5.2203  -4.6764
    -4.1586  -3.9852  -3.9266  -3.7729  -3.4896  -3.4043  -3.0856  -2.8552
    -2.6391  -2.3145  -2.1831  -1.8878  -1.7417  -1.3022  -1.1093  -1.0218
    -1.0050  -0.8306  -0.7993  -0.7011  -0.5559  -0.3855  -0.2752  -0.2458
    -0.0649   0.0135   0.0797   0.2456   0.3367   0.3539   0.5036   0.5877
     0.7233   0.8164   0.8658   0.9082   0.9338   1.0767   1.1266   1.3143
     1.3498   1.6730   1.8016   1.8680   2.0061   2.3346   2.6321   2.8659
     3.5218   3.5742   3.8215   4.3294   4.6813   4.9384   5.0094   5.1128
     5.1879   5.3753   5.4160   5.6084   5.6176   5.7281   5.8184   5.8318
     5.9211   5.9928   6.0364   6.2712   6.3445   6.5301   6.5330   6.6223
     6.7476   6.7587   6.8773   6.8999   7.0407   7.0765   7.1850   7.2894

          k =-0.2500 0.2500 0.0000 ( 31008 PWs)   bands (ev):

    -8.3384  -8.1852  -7.9146  -7.5232  -7.0233  -6.4498  -6.3570  -6.3106
    -6.2840  -6.1981  -6.1645  -6.1213  -6.0326  -5.8278  -5.3726  -4.8592
    -4.0462  -3.9371  -3.6830  -3.6173  -3.4251  -3.3811  -3.2947  -3.1446
    -3.0663  -2.9980  -2.8311  -2.2972  -1.8019  -1.3622  -1.0505  -0.8361
    -0.7703  -0.4883  -0.4824  -0.4791  -0.4539  -0.4153  -0.1966  -0.0738
    -0.0650  -0.0019   0.2600   0.3219   0.5538   0.6422   0.6626   0.7733
     0.8185   0.8321   0.8606   0.9053   1.0815   1.1059   1.3590   1.6968
     1.7133   1.7916   2.0998   2.1931   2.3588   2.4446   2.6399   2.8174
     3.4566   3.5435   3.7650   4.3134   4.5610   4.6343   4.6416   4.6652
     4.8020   4.8725   5.0114   5.0338   5.1428   5.2706   5.3487   5.5110
     5.6473   5.7701   6.0096   6.0489   6.1406   6.1959   6.3583   6.4095
     6.4702   6.5342   6.6277   6.7535   6.9255   6.9413   6.9975   7.2273

          k =-0.2500 0.3750 0.0000 ( 31049 PWs)   bands (ev):

    -8.0132  -7.8686  -7.6120  -7.2494  -6.9893  -6.8809  -6.7676  -6.6574
    -6.4426  -6.2585  -6.2366  -6.1303  -6.0977  -5.7940  -5.5542  -5.1775
    -4.1671  -3.8347  -3.7033  -3.6390  -3.5464  -3.4277  -3.3562  -3.1686
    -3.0722  -2.7101  -2.6335  -2.2754  -2.2019  -1.7421  -1.3327  -1.1090
    -0.8380  -0.7404  -0.4677  -0.4361  -0.1705  -0.1341   0.0569   0.1028
     0.2630   0.3088   0.3903   0.5413   0.6312   0.6817   0.7012   0.8404
     0.9139   0.9458   1.0273   1.1387   1.1808   1.2373   1.2988   1.3400
     1.6541   1.7619   1.8845   2.1295   2.2494   2.2661   2.6251   2.7853
     3.4889   3.6408   4.0935   4.7240   4.8807   4.9235   5.0140   5.0909
     5.1285   5.2006   5.2757   5.3559   5.3857   5.4874   5.6077   5.7739
     5.7983   5.8804   6.1914   6.2457   6.2668   6.3320   6.4117   6.5162
     6.5809   6.7028   6.7243   6.9398   6.9998   7.0799   7.1387   7.1530

          k =-0.3750 0.3750 0.0000 ( 31070 PWs)   bands (ev):

    -7.6988  -7.5637  -7.3262  -6.9990  -6.7682  -6.7230  -6.6915  -6.6399
    -6.5888  -6.5681  -6.5188  -6.4344  -6.2392  -5.9665  -5.9065  -5.6045
    -4.2656  -3.7681  -3.7206  -3.6960  -3.6652  -3.4457  -3.4284  -3.2334
    -3.0870  -2.9975  -2.8012  -2.6821  -2.5985  -2.0979  -1.6468  -1.4374
    -0.8842  -0.5105  -0.3981  -0.2053  -0.1247   0.1697   0.3086   0.3716
     0.4992   0.6377   0.6612   0.8107   1.0351   1.0658   1.0916   1.0936
     1.1426   1.2639   1.2919   1.3069   1.3208   1.4173   1.4473   1.5018
     1.7111   1.9319   2.1249   2.2620   2.2896   2.3139   2.6913   2.7282
     3.2100   3.6747   4.6196   4.6486   4.8472   4.9016   5.0638   5.1112
     5.2046   5.2514   5.3585   5.3619   5.4216   5.5731   5.6678   5.8743
     5.8962   6.1654   6.2077   6.2620   6.2896   6.3988   6.4421   6.4793
     6.4933   6.5450   6.5498   6.5541   6.5818   6.6217   6.6780   6.7821

     the Fermi energy is     2.9238 ev

!    total energy              =   -1494.77896145 Ry
     Harris-Foulkes estimate   =   -1494.77896145 Ry
     estimated scf accuracy    <          1.0E-08 Ry

     total all-electron energy =    -18561.846641 Ry

     The total energy is the sum of the following terms:

     one-electron contribution =   -1392.55607372 Ry
     hartree contribution      =     744.68780215 Ry
     xc contribution           =    -156.73299186 Ry
     ewald contribution        =     487.98658867 Ry
     one-center paw contrib.   =   -1178.15909218 Ry
     smearing contrib. (-TS)   =      -0.00519451 Ry

     convergence has been achieved in  18 iterations

     negative rho (up, down):  3.938E-07 0.000E+00

     Forces acting on atoms (cartesian axes, Ry/au):

     atom    1 type  1   force =    -0.00000355   -0.00000355   -0.00001717
     atom    2 type  1   force =    -0.00000220   -0.00000227   -0.00000167
     atom    3 type  1   force =    -0.00000227   -0.00000220   -0.00000167
     atom    4 type  1   force =    -0.00000352   -0.00000352    0.00001881
     atom    5 type  1   force =    -0.00001166   -0.00001166   -0.00000496
     atom    6 type  1   force =    -0.00000196   -0.00000247   -0.00000087
     atom    7 type  1   force =    -0.00000247   -0.00000196   -0.00000087
     atom    8 type  1   force =     0.00000464    0.00000464   -0.00000489
     atom    9 type  1   force =    -0.00000142   -0.00000142   -0.00000254
     atom   10 type  1   force =    -0.00000033   -0.00000037   -0.00000108
     atom   11 type  1   force =    -0.00000037   -0.00000033   -0.00000108
     atom   12 type  1   force =    -0.00000138   -0.00000138   -0.00000077
     atom   13 type  1   force =    -0.00000165   -0.00000165   -0.00000194
     atom   14 type  1   force =    -0.00000020   -0.00000053    0.00000050
     atom   15 type  1   force =    -0.00000053   -0.00000020    0.00000050
     atom   16 type  1   force =    -0.00000103   -0.00000103   -0.00000189
     atom   17 type  1   force =     0.00000070    0.00000070    0.00000173
     atom   18 type  1   force =     0.00000165    0.00000159    0.00000213
     atom   19 type  1   force =     0.00000159    0.00000165    0.00000213
     atom   20 type  1   force =     0.00000070    0.00000070    0.00000217
     atom   21 type  1   force =     0.00000083    0.00000083    0.00000272
     atom   22 type  1   force =     0.00000229    0.00000106    0.00000089
     atom   23 type  1   force =     0.00000106    0.00000229    0.00000089
     atom   24 type  1   force =     0.00000072    0.00000072    0.00000279
     atom   25 type  1   force =     0.00000235    0.00000235   -0.00000012
     atom   26 type  1   force =     0.00000264    0.00000272    0.00000039
     atom   27 type  1   force =     0.00000272    0.00000264    0.00000039
     atom   28 type  1   force =     0.00000235    0.00000235    0.00000050
     atom   29 type  1   force =     0.00000270    0.00000270    0.00000063
     atom   30 type  1   force =     0.00000354    0.00000189    0.00000185
     atom   31 type  1   force =     0.00000189    0.00000354    0.00000185
     atom   32 type  1   force =     0.00000214    0.00000214    0.00000069

     Total force =     0.000036     Total SCF correction =     0.000193
     SCF correction compared to forces is large: reduce conv_thr to get better values


     Computing stress (Cartesian axis) and pressure


     negative rho (up, down):  3.938E-07 0.000E+00
          total   stress  (Ry/bohr**3)                   (kbar)     P=    0.90
   0.00001029   0.00004456   0.00000025          1.51      6.55      0.04
   0.00004456   0.00001029   0.00000025          6.55      1.51      0.04
   0.00000025   0.00000025  -0.00000221          0.04      0.04     -0.32


     Writing output data file Si.Fd-3m_4ML.save/
 
     init_run     :      3.82s CPU      4.91s WALL (       1 calls)
     electrons    :    474.41s CPU    517.74s WALL (       1 calls)
     forces       :      1.09s CPU      1.20s WALL (       1 calls)
     stress       :      6.92s CPU      8.08s WALL (       1 calls)

     Called by init_run:
     wfcinit      :      2.27s CPU      2.33s WALL (       1 calls)
     potinit      :      0.80s CPU      1.43s WALL (       1 calls)
     hinit0       :      0.29s CPU      0.29s WALL (       1 calls)

     Called by electrons:
     c_bands      :    402.72s CPU    431.05s WALL (      19 calls)
     sum_band     :     23.64s CPU     29.53s WALL (      19 calls)
     v_of_rho     :      2.08s CPU      2.11s WALL (      19 calls)
     newd         :      0.29s CPU      0.38s WALL (      19 calls)
     PAW_pot      :      3.97s CPU      7.68s WALL (      19 calls)
     mix_rho      :     36.91s CPU     37.16s WALL (      19 calls)

     Called by c_bands:
     init_us_2    :      1.03s CPU      1.06s WALL (      82 calls)
     ccgdiagg     :    348.15s CPU    349.52s WALL (      38 calls)
     wfcrot       :     29.58s CPU     29.83s WALL (      36 calls)

     Called by sum_band:
     sum_band:bec :      0.01s CPU      0.01s WALL (      38 calls)
     addusdens    :      1.58s CPU      3.07s WALL (      19 calls)

     Called by *cgdiagg:
     h_psi        :    195.82s CPU    196.96s WALL (    8881 calls)
     s_psi        :    103.01s CPU    102.94s WALL (   17726 calls)
     cdiaghg      :      0.11s CPU      0.09s WALL (      36 calls)

     Called by h_psi:
     h_psi:pot    :    195.12s CPU    196.27s WALL (    8881 calls)
     h_psi:calbec :     54.37s CPU     54.57s WALL (    8881 calls)
     vloc_psi     :     87.16s CPU     88.03s WALL (    8881 calls)
     add_vuspsi   :     53.49s CPU     53.61s WALL (    8881 calls)
     hs_1psi      :    219.98s CPU    220.96s WALL (    8845 calls)
     s_1psi       :    103.02s CPU    103.16s WALL (    8845 calls)

     General routines
     calbec       :    107.05s CPU    107.58s WALL (   17774 calls)
     fft          :      1.70s CPU      1.78s WALL (     235 calls)
     ffts         :     19.18s CPU     19.34s WALL (    2630 calls)
     fftw         :     79.25s CPU     80.26s WALL (   28378 calls)
 
     Parallel routines
     fft_scatt_xy :     19.91s CPU     19.96s WALL (   31243 calls)
     fft_scatt_yz :     27.31s CPU     27.73s WALL (   31243 calls)
 
     PWSCF        :   8m 6.97s CPU  10m25.91s WALL

 
   This run was terminated on:  20:59:51   3Sep2021            

=------------------------------------------------------------------------------=
   JOB DONE.
=------------------------------------------------------------------------------=
Note: The following floating-point exceptions are signalling: IEEE_DENORMAL
Note: The following floating-point exceptions are signalling:Note: The following floating-point exceptions are signalling: IEEE_DENORMAL
 IEEE_UNDERFLOW_FLAG IEEE_DENORMAL
Note: The following floating-point exceptions are signalling: IEEE_DENORMAL
