
     Program PWSCF v.6.4.1 starts on 25Sep2021 at 15:19:55 

     This program is part of the open-source Quantum ESPRESSO suite
     for quantum simulation of materials; please cite
         "P. Giannozzi et al., J. Phys.:Condens. Matter 21 395502 (2009);
         "P. Giannozzi et al., J. Phys.:Condens. Matter 29 465901 (2017);
          URL http://www.quantum-espresso.org", 
     in publications or presentations arising from this work. More details at
     http://www.quantum-espresso.org/quote

     Parallel version (MPI), running on    12 processors

     MPI processes distributed on     3 nodes
     K-points division:     npool     =       3
     R & G space division:  proc/nbgrp/npool/nimage =       4
     Reading input from Si.Fd-3m_1ML.relax_-0.005.in

     Current dimensions of program PWSCF are:
     Max number of different atomic species (ntypx) = 10
     Max number of k-points (npk) =  40000
     Max angular momentum in pseudopotentials (lmaxx) =  3
               file Si.pbe-nl-kjpaw_psl.1.0.0.UPF: wavefunction(s)  3S 3P renormalized

     Subspace diagonalization in iterative solution of the eigenvalue problem:
     a serial algorithm will be used

     Message from routine setup:
     DEPRECATED: symmetry with ibrav=0, use correct ibrav instead
     Message from routine setup:
     Dynamics, you should have no symmetries
 
     Parallelization info
     --------------------
     sticks:   dense  smooth     PW     G-vecs:    dense   smooth      PW
     Min         369     369    106                27609    27609    4325
     Max         371     371    108                27611    27611    4332
     Sum        1481    1481    429               110441   110441   17313
 

     Title: 
     Relaxation of atomic positions for single monolayer slab of Si using PBE   


     bravais-lattice index     =            0
     lattice parameter (alat)  =      10.2803  a.u.
     unit-cell volume          =    2824.8234 (a.u.)^3
     number of atoms/cell      =            8
     number of atomic types    =            1
     number of electrons       =        32.00
     number of Kohn-Sham states=           24
     kinetic-energy cutoff     =      45.0000  Ry
     charge density cutoff     =     175.0000  Ry
     convergence threshold     =      1.0E-08
     mixing beta               =       0.5000
     number of iterations used =            8  local-TF  mixing
     Exchange-correlation      = SLA PW PBX PBC ( 1  4  3  4 0 0)
     Using LIBXC version       =    4   3   4
     nstep                     =          150


     celldm(1)=  10.280305  celldm(2)=   0.000000  celldm(3)=   0.000000
     celldm(4)=   0.000000  celldm(5)=   0.000000  celldm(6)=   0.000000

     crystal axes: (cart. coord. in units of alat)
               a(1) = (   1.000000   0.000000   0.000000 )  
               a(2) = (   0.000000   1.000000   0.000000 )  
               a(3) = (   0.000000   0.000000   2.600000 )  

     reciprocal axes: (cart. coord. in units 2 pi/alat)
               b(1) = (  1.000000  0.000000  0.000000 )  
               b(2) = (  0.000000  1.000000  0.000000 )  
               b(3) = (  0.000000  0.000000  0.384615 )  


     PseudoPot. # 1 for Si read from file:
     /share/pseudo/Si.pbe-nl-kjpaw_psl.1.0.0.UPF
     MD5 check sum: 3686bff6734aab787fb18a3c8374d51f
     Pseudo is Projector augmented-wave + core cor, Zval =  4.0
     Generated using "atomic" code by A. Dal Corso v.6.3
     Shape of augmentation charge: PSQ
     Using radial grid of 1141 points,  4 beta functions with: 
                l(1) =   0
                l(2) =   0
                l(3) =   1
                l(4) =   1
     Q(r) pseudized with 0 coefficients 


     atomic species   valence    mass     pseudopotential
        Si             4.00    28.08600     Si( 1.00)

      2 Sym. Ops. (no inversion) found



   Cartesian axes

     site n.     atom                  positions (alat units)
         1           Si  tau(   1) = (   0.0000151   0.0000151   0.8056410  )
         2           Si  tau(   2) = (   0.0000144   0.5025300   1.3103902  )
         3           Si  tau(   3) = (   0.5025300   0.0000144   1.3103902  )
         4           Si  tau(   4) = (   0.5025297   0.5025297   0.8056388  )
         5           Si  tau(   5) = (   0.2512827   0.2512827   1.0515143  )
         6           Si  tau(   6) = (   0.2512590   0.7537988   1.5562772  )
         7           Si  tau(   7) = (   0.7537988   0.2512590   1.5562772  )
         8           Si  tau(   8) = (   0.7537756   0.7537756   1.0515141  )

     number of k points=    21  gaussian smearing, width (Ry)=  0.0100
                       cart. coord. in units 2pi/alat
        k(    1) = (   0.0000000   0.0000000   0.0000000), wk =   0.0312500
        k(    2) = (   0.0000000   0.1250000   0.0000000), wk =   0.1250000
        k(    3) = (   0.0000000   0.2500000   0.0000000), wk =   0.1250000
        k(    4) = (   0.0000000   0.3750000   0.0000000), wk =   0.1250000
        k(    5) = (   0.0000000  -0.5000000   0.0000000), wk =   0.0625000
        k(    6) = (   0.1250000   0.1250000   0.0000000), wk =   0.0625000
        k(    7) = (   0.1250000   0.2500000   0.0000000), wk =   0.1250000
        k(    8) = (   0.1250000   0.3750000   0.0000000), wk =   0.1250000
        k(    9) = (   0.1250000  -0.5000000   0.0000000), wk =   0.1250000
        k(   10) = (   0.2500000   0.2500000   0.0000000), wk =   0.0625000
        k(   11) = (   0.2500000   0.3750000   0.0000000), wk =   0.1250000
        k(   12) = (   0.2500000  -0.5000000   0.0000000), wk =   0.1250000
        k(   13) = (   0.3750000   0.3750000   0.0000000), wk =   0.0625000
        k(   14) = (   0.3750000  -0.5000000   0.0000000), wk =   0.1250000
        k(   15) = (  -0.5000000  -0.5000000   0.0000000), wk =   0.0312500
        k(   16) = (  -0.1250000   0.1250000   0.0000000), wk =   0.0625000
        k(   17) = (  -0.1250000   0.2500000   0.0000000), wk =   0.1250000
        k(   18) = (  -0.1250000   0.3750000   0.0000000), wk =   0.1250000
        k(   19) = (  -0.2500000   0.2500000   0.0000000), wk =   0.0625000
        k(   20) = (  -0.2500000   0.3750000   0.0000000), wk =   0.1250000
        k(   21) = (  -0.3750000   0.3750000   0.0000000), wk =   0.0625000

     Dense  grid:   110441 G-vectors     FFT dimensions: (  45,  45, 120)

     Estimated max dynamical RAM per process >      42.05 MB

     Estimated total dynamical RAM >     504.59 MB

     Initial potential from superposition of free atoms

     starting charge   31.99553, renormalised to   32.00000

     negative rho (up, down):  2.772E-06 0.000E+00
     Starting wfcs are   32 randomized atomic wfcs
     Checking if some PAW data can be deallocated... 

     total cpu time spent up to now is       19.7 secs

     Self-consistent Calculation

     iteration #  1     ecut=    45.00 Ry     beta= 0.50
     CG style diagonalization
     ethr =  1.00E-02,  avg # of iterations =  3.2

     Threshold (ethr) on eigenvalues was too large:
     Diagonalizing with lowered threshold

     CG style diagonalization
     ethr =  8.64E-04,  avg # of iterations =  2.2

     total cpu time spent up to now is      137.9 secs

     total energy              =    -373.30277084 Ry
     Harris-Foulkes estimate   =    -373.34568591 Ry
     estimated scf accuracy    <       0.28176290 Ry

     iteration #  2     ecut=    45.00 Ry     beta= 0.50
     CG style diagonalization
     ethr =  8.81E-04,  avg # of iterations =  3.0

     total cpu time spent up to now is      186.1 secs

     total energy              =    -373.25799271 Ry
     Harris-Foulkes estimate   =    -373.31101392 Ry
     estimated scf accuracy    <       0.15101282 Ry

     iteration #  3     ecut=    45.00 Ry     beta= 0.50
     CG style diagonalization
     ethr =  4.72E-04,  avg # of iterations =  3.2

     total cpu time spent up to now is      237.0 secs

     total energy              =    -373.27823809 Ry
     Harris-Foulkes estimate   =    -373.27937391 Ry
     estimated scf accuracy    <       0.00777495 Ry

     iteration #  4     ecut=    45.00 Ry     beta= 0.50
     CG style diagonalization
     c_bands:  2 eigenvalues not converged
     c_bands:  1 eigenvalues not converged
     c_bands:  1 eigenvalues not converged
     ethr =  2.43E-05,  avg # of iterations =  5.0

     total cpu time spent up to now is      321.7 secs

     total energy              =    -373.27985714 Ry
     Harris-Foulkes estimate   =    -373.28138501 Ry
     estimated scf accuracy    <       0.00413966 Ry

     iteration #  5     ecut=    45.00 Ry     beta= 0.50
     CG style diagonalization
     c_bands:  1 eigenvalues not converged
     ethr =  1.29E-05,  avg # of iterations =  3.4

     total cpu time spent up to now is      371.7 secs

     total energy              =    -373.28009600 Ry
     Harris-Foulkes estimate   =    -373.28034084 Ry
     estimated scf accuracy    <       0.00133511 Ry

     iteration #  6     ecut=    45.00 Ry     beta= 0.50
     CG style diagonalization
     c_bands:  1 eigenvalues not converged
     ethr =  4.17E-06,  avg # of iterations =  3.5

     total cpu time spent up to now is      428.2 secs

     total energy              =    -373.27986893 Ry
     Harris-Foulkes estimate   =    -373.28017611 Ry
     estimated scf accuracy    <       0.00086231 Ry

     iteration #  7     ecut=    45.00 Ry     beta= 0.50
     CG style diagonalization
     ethr =  2.69E-06,  avg # of iterations =  4.0

     total cpu time spent up to now is      493.6 secs

     total energy              =    -373.28011852 Ry
     Harris-Foulkes estimate   =    -373.28017852 Ry
     estimated scf accuracy    <       0.00028163 Ry

     iteration #  8     ecut=    45.00 Ry     beta= 0.50
     CG style diagonalization
     ethr =  8.80E-07,  avg # of iterations =  3.1

     total cpu time spent up to now is      540.9 secs

     total energy              =    -373.28012214 Ry
     Harris-Foulkes estimate   =    -373.28013762 Ry
     estimated scf accuracy    <       0.00014105 Ry

     iteration #  9     ecut=    45.00 Ry     beta= 0.50
     CG style diagonalization
     ethr =  4.41E-07,  avg # of iterations =  3.4

     negative rho (up, down):  7.721E-08 0.000E+00

     total cpu time spent up to now is      595.6 secs

     total energy              =    -373.28015462 Ry
     Harris-Foulkes estimate   =    -373.28015165 Ry
     estimated scf accuracy    <       0.00000181 Ry

     iteration # 10     ecut=    45.00 Ry     beta= 0.50
     CG style diagonalization
     ethr =  5.67E-09,  avg # of iterations =  4.6

     negative rho (up, down):  5.001E-07 0.000E+00

     total cpu time spent up to now is      662.2 secs

     total energy              =    -373.28015631 Ry
     Harris-Foulkes estimate   =    -373.28015721 Ry
     estimated scf accuracy    <       0.00000385 Ry

     iteration # 11     ecut=    45.00 Ry     beta= 0.50
     CG style diagonalization
     ethr =  5.67E-09,  avg # of iterations =  3.2

     negative rho (up, down):  8.649E-07 0.000E+00

     total cpu time spent up to now is      732.1 secs

     total energy              =    -373.28015640 Ry
     Harris-Foulkes estimate   =    -373.28015659 Ry
     estimated scf accuracy    <       0.00000052 Ry

     iteration # 12     ecut=    45.00 Ry     beta= 0.50
     CG style diagonalization
     ethr =  1.63E-09,  avg # of iterations =  3.7

     negative rho (up, down):  1.066E-06 0.000E+00

     total cpu time spent up to now is      808.1 secs

     total energy              =    -373.28015660 Ry
     Harris-Foulkes estimate   =    -373.28015664 Ry
     estimated scf accuracy    <       0.00000015 Ry

     iteration # 13     ecut=    45.00 Ry     beta= 0.50
     CG style diagonalization
     ethr =  4.80E-10,  avg # of iterations =  3.1

     negative rho (up, down):  9.213E-07 0.000E+00

     total cpu time spent up to now is      869.7 secs

     total energy              =    -373.28015660 Ry
     Harris-Foulkes estimate   =    -373.28015661 Ry
     estimated scf accuracy    <       0.00000003 Ry

     iteration # 14     ecut=    45.00 Ry     beta= 0.50
     CG style diagonalization
     ethr =  8.22E-11,  avg # of iterations =  3.8

     negative rho (up, down):  8.028E-07 0.000E+00

     total cpu time spent up to now is      941.0 secs

     total energy              =    -373.28015662 Ry
     Harris-Foulkes estimate   =    -373.28015662 Ry
     estimated scf accuracy    <       0.00000001 Ry

     iteration # 15     ecut=    45.00 Ry     beta= 0.50
     CG style diagonalization
     ethr =  4.14E-11,  avg # of iterations =  3.1

     negative rho (up, down):  8.116E-07 0.000E+00

     total cpu time spent up to now is      976.7 secs

     End of self-consistent calculation

          k = 0.0000 0.0000 0.0000 ( 14365 PWs)   bands (ev):

   -11.7708  -9.6179  -8.3321  -8.3318  -7.5293  -7.5290  -6.2994  -3.8257
    -3.8256  -2.8687  -2.6299  -2.5135  -2.1472  -2.1467  -1.4889  -0.7740
    -0.7731  -0.5008   0.4181   0.8897   1.0459   1.8279   1.8281   2.0740

          k = 0.0000 0.1250 0.0000 ( 14388 PWs)   bands (ev):

   -11.7071  -9.5713  -8.9374  -8.2046  -7.4447  -7.1096  -6.3071  -4.0349
    -3.7061  -3.0668  -3.0498  -2.3922  -1.9942  -1.9638  -1.6044  -1.0014
    -0.6458  -0.5143   0.3301   1.2435   1.3433   1.7645   2.1894   2.3920

          k = 0.0000 0.2500 0.0000 ( 14390 PWs)   bands (ev):

   -11.5173  -9.6161  -9.4342  -8.3961  -7.2153  -6.3980  -6.3484  -4.1704
    -3.7102  -3.6657  -3.4094  -2.7500  -1.6412  -1.5890  -1.5634  -1.1183
    -0.7865  -0.6152   0.3119   1.5726   2.0178   2.1021   2.1416   2.9704

          k = 0.0000 0.3750 0.0000 ( 14358 PWs)   bands (ev):

   -11.2049 -10.2390  -9.2221  -8.6649  -6.9434  -6.4650  -5.6676  -4.3141
    -4.1092  -3.7532  -3.6778  -3.3207  -1.5616  -1.3805  -1.1704  -1.1540
    -0.7686  -0.5015   0.1196   0.8407   2.7647   2.7894   3.2543   3.3739

          k = 0.0000-0.5000 0.0000 ( 14338 PWs)   bands (ev):

   -10.8011 -10.7488  -8.9719  -8.9364  -6.6765  -6.6734  -4.9876  -4.9570
    -3.8324  -3.7999  -3.7807  -3.7672  -1.4499  -1.4294  -1.1937  -1.1707
    -0.2878  -0.2757   0.0665   0.0891   3.1402   3.1503   3.6709   3.6816

          k = 0.1250 0.1250 0.0000 ( 14393 PWs)   bands (ev):

   -11.6406  -9.4742  -8.9248  -8.9242  -6.8178  -6.8176  -6.4266  -4.0047
    -4.0043  -3.4941  -3.0597  -2.5380  -1.7708  -1.6870  -1.6849  -1.0604
    -1.0600  -0.4309   0.5436   1.1404   1.8794   2.3177   2.3597   2.3712

          k = 0.1250 0.2500 0.0000 ( 14395 PWs)   bands (ev):

   -11.4497  -9.6043  -9.2841  -8.9860  -6.6270  -6.5655  -6.1893  -4.1110
    -3.9230  -3.8202  -3.7576  -2.7020  -1.6187  -1.4787  -1.3084  -1.1645
    -1.0726  -0.6701   0.5664   1.5835   1.9793   2.5377   2.7259   3.0623

          k = 0.1250 0.3750 0.0000 ( 14386 PWs)   bands (ev):

   -11.1391 -10.2153  -9.0954  -9.0037  -6.9245  -6.3575  -5.7090  -4.5186
    -3.9171  -3.8624  -3.7563  -3.1184  -1.7675  -1.3519  -1.1234  -1.0605
    -0.8218  -0.5824   0.3451   1.2647   2.5130   2.8212   3.1704   3.3068

          k = 0.1250-0.5000 0.0000 ( 14382 PWs)   bands (ev):

   -10.7564 -10.6997  -9.2332  -8.6558  -7.2723  -6.2151  -5.3284  -5.2653
    -3.8068  -3.5313  -3.5005  -3.3146  -1.8351  -1.4627  -1.2345  -1.1461
    -0.2664  -0.0779  -0.0051   0.4728   3.1294   3.1485   3.5394   3.5871

          k = 0.2500 0.2500 0.0000 ( 14420 PWs)   bands (ev):

   -11.2637  -9.5756  -9.5750  -9.0455  -7.0163  -6.0853  -6.0850  -4.4908
    -3.9844  -3.8487  -3.8478  -2.2875  -1.5734  -1.5429  -1.5424  -0.9879
    -0.8484  -0.8475   0.9082   1.4631   1.9890   2.6252   3.1607   3.1620

          k = 0.2500 0.3750 0.0000 ( 14427 PWs)   bands (ev):

   -10.9681 -10.1256  -9.5391  -8.7206  -7.4588  -6.0235  -5.8626  -5.2236
    -3.9079  -3.4651  -3.3715  -2.4092  -1.9099  -1.4953  -1.4465  -1.2961
    -0.6041  -0.3417   0.9624   1.5310   1.9234   2.8641   3.2461   3.3239

          k = 0.2500-0.5000 0.0000 ( 14440 PWs)   bands (ev):

   -10.6249 -10.5661  -9.5179  -8.3189  -7.8645  -5.9910  -5.9021  -5.6975
    -3.6599  -3.0210  -2.7908  -2.6837  -2.1094  -1.9157  -1.4230  -1.0806
    -0.3896   0.0729   0.7452   0.8500   2.6825   2.7186   3.1591   3.1886

          k = 0.3750 0.3750 0.0000 ( 14444 PWs)   bands (ev):

   -10.7117  -9.9848  -9.9842  -8.3613  -7.9606  -5.9548  -5.9413  -5.8972
    -3.7100  -2.8910  -2.8907  -1.9761  -1.9607  -1.8565  -1.8529  -1.1621
    -0.2476  -0.2475   1.4475   1.5177   1.6989   3.0086   3.0132   3.0712

          k = 0.3750-0.5000 0.0000 ( 14438 PWs)   bands (ev):

   -10.4357 -10.3806  -9.8196  -8.3272  -7.9512  -6.4952  -5.9482  -5.9066
    -3.3857  -2.5526  -2.4296  -2.2642  -2.1097  -2.0564  -1.6874  -0.9865
    -0.2713   0.0546   1.1533   1.4943   1.9689   2.1255   2.3634   2.9092

          k =-0.5000-0.5000 0.0000 ( 14440 PWs)   bands (ev):

   -10.3417 -10.1234 -10.1191  -8.5111  -7.7267  -6.8004  -5.9630  -5.9621
    -3.1271  -2.7731  -2.3014  -2.3009  -1.8384  -1.8213  -1.7999  -0.9215
    -0.0815  -0.0814   1.2740   1.6456   1.8263   1.9558   1.9568   3.5267

          k =-0.1250 0.1250 0.0000 ( 14393 PWs)   bands (ev):

   -11.6479  -9.5795  -9.1577  -7.8235  -7.4791  -7.4377  -6.2270  -4.0425
    -3.6924  -3.4369  -2.7805  -2.1156  -2.1047  -1.9589  -1.4778  -0.8619
    -0.8278  -0.3643   0.0718   1.3282   1.5351   1.5554   1.7114   2.4798

          k =-0.1250 0.2500 0.0000 ( 14395 PWs)   bands (ev):

   -11.4639  -9.6446  -9.5081  -7.8555  -7.8060  -6.7330  -6.1708  -4.3332
    -3.9922  -3.4038  -2.8846  -2.1709  -2.0590  -1.6100  -1.5022  -1.2662
    -0.6389  -0.2452   0.1715   1.0194   1.6247   1.7899   2.1545   2.8593

          k =-0.1250 0.3750 0.0000 ( 14386 PWs)   bands (ev):

   -11.1592 -10.2032  -9.3835  -8.2569  -7.5952  -6.1568  -6.0040  -4.8852
    -3.8246  -3.5876  -3.1941  -2.6745  -1.8141  -1.6506  -1.3923  -1.1991
    -0.3517  -0.0885   0.2142   0.3573   2.3170   2.4797   3.0438   3.2344

          k =-0.2500 0.2500 0.0000 ( 14420 PWs)   bands (ev):

   -11.2909  -9.8014  -9.5270  -8.1653  -7.5334  -6.9370  -6.0582  -4.9484
    -3.6456  -3.1905  -2.5339  -2.3875  -1.8361  -1.7661  -1.4760  -1.3954
    -0.0675   0.0159   0.1177   0.4337   1.5776   1.8763   1.9929   2.7848

          k =-0.2500 0.3750 0.0000 ( 14427 PWs)   bands (ev):

   -11.0034 -10.1540  -9.5197  -8.1447  -7.8687  -6.5104  -5.9972  -5.4114
    -3.3376  -3.2255  -2.6155  -2.2988  -2.0879  -2.0524  -1.4443  -1.1193
    -0.0597   0.2186   0.3037   0.4053   1.8756   2.3850   2.4451   2.8058

          k =-0.3750 0.3750 0.0000 ( 14444 PWs)   bands (ev):

   -10.7453 -10.2005  -9.6604  -8.4193  -7.6689  -6.8027  -5.9452  -5.7542
    -3.1274  -2.6691  -2.5910  -2.3810  -2.1808  -1.8481  -1.5710  -0.9980
    -0.2656   0.1741   0.7085   1.1126   1.7398   2.1005   2.4179   2.7503

     the Fermi energy is    -0.9330 ev

!    total energy              =    -373.28015662 Ry
     Harris-Foulkes estimate   =    -373.28015662 Ry
     estimated scf accuracy    <          1.8E-09 Ry

     convergence has been achieved in  15 iterations

     negative rho (up, down):  8.116E-07 0.000E+00

     Forces acting on atoms (cartesian axes, Ry/au):

     atom    1 type  1   force =     0.00606537    0.00606537   -0.00445746
     atom    2 type  1   force =     0.00511343   -0.00004012    0.00073821
     atom    3 type  1   force =    -0.00004012    0.00511343    0.00073821
     atom    4 type  1   force =    -0.00065809   -0.00065809    0.00085786
     atom    5 type  1   force =    -0.00004495   -0.00004495   -0.00113429
     atom    6 type  1   force =    -0.00386949   -0.00130868    0.00163334
     atom    7 type  1   force =    -0.00130868   -0.00386949    0.00163334
     atom    8 type  1   force =    -0.00525747   -0.00525747   -0.00000922

     Total force =     0.015611     Total SCF correction =     0.000067


     Computing stress (Cartesian axis) and pressure


     negative rho (up, down):  8.116E-07 0.000E+00
          total   stress  (Ry/bohr**3)                   (kbar)     P=   -7.72
  -0.00008387   0.00004024  -0.00000955        -12.34      5.92     -1.40
   0.00004024  -0.00008387  -0.00000955          5.92    -12.34     -1.40
  -0.00000955  -0.00000955   0.00001028         -1.40     -1.40      1.51


     Damped Dynamics Calculation

     Entering Dynamics:    iteration =     1

ATOMIC_POSITIONS (angstrom)
Si       0.001490549   0.001490549   4.381734680
Si       0.001265894   2.733805350   7.128829044
Si       2.733805350   0.001265894   7.128829044
Si       2.733660361   2.733660361   4.382957367
Si       1.366993103   1.366993103   5.720082521
Si       1.365976283   4.100439303   8.466687628
Si       4.100439303   1.365976283   8.466687628
Si       4.099395905   4.099395905   5.720342566



     Writing output data file Si.Fd-3m_1ML.save/
     NEW-OLD atomic charge density approx. for the potential

     negative rho (up, down):  8.130E-07 0.000E+00

     total cpu time spent up to now is      986.1 secs

     Self-consistent Calculation

     iteration #  1     ecut=    45.00 Ry     beta= 0.50
     CG style diagonalization
     ethr =  1.00E-06,  avg # of iterations =  2.4

     Threshold (ethr) on eigenvalues was too large:
     Diagonalizing with lowered threshold

     CG style diagonalization
     c_bands:  1 eigenvalues not converged
     c_bands:  3 eigenvalues not converged
     c_bands:  3 eigenvalues not converged
     c_bands:  4 eigenvalues not converged
     c_bands:  1 eigenvalues not converged
     c_bands:  4 eigenvalues not converged
     ethr =  8.23E-09,  avg # of iterations =  9.3

     negative rho (up, down):  8.114E-07 0.000E+00

     total cpu time spent up to now is     1184.8 secs

     total energy              =    -373.28025591 Ry
     Harris-Foulkes estimate   =    -373.28031715 Ry
     estimated scf accuracy    <       0.00000405 Ry

     iteration #  2     ecut=    45.00 Ry     beta= 0.50
     CG style diagonalization
     ethr =  1.26E-08,  avg # of iterations =  3.0

     negative rho (up, down):  8.164E-07 0.000E+00

     total cpu time spent up to now is     1235.4 secs

     total energy              =    -373.28025551 Ry
     Harris-Foulkes estimate   =    -373.28025629 Ry
     estimated scf accuracy    <       0.00000155 Ry

     iteration #  3     ecut=    45.00 Ry     beta= 0.50
     CG style diagonalization
     ethr =  4.85E-09,  avg # of iterations =  3.6

     negative rho (up, down):  8.165E-07 0.000E+00

     total cpu time spent up to now is     1292.0 secs

     total energy              =    -373.28025600 Ry
     Harris-Foulkes estimate   =    -373.28025607 Ry
     estimated scf accuracy    <       0.00000037 Ry

     iteration #  4     ecut=    45.00 Ry     beta= 0.50
     CG style diagonalization
     ethr =  1.15E-09,  avg # of iterations =  3.2

     negative rho (up, down):  8.158E-07 0.000E+00

     total cpu time spent up to now is     1350.0 secs

     total energy              =    -373.28025601 Ry
     Harris-Foulkes estimate   =    -373.28025603 Ry
     estimated scf accuracy    <       0.00000012 Ry

     iteration #  5     ecut=    45.00 Ry     beta= 0.50
     CG style diagonalization
     ethr =  3.76E-10,  avg # of iterations =  3.0

     negative rho (up, down):  8.148E-07 0.000E+00

     total cpu time spent up to now is     1405.1 secs

     total energy              =    -373.28025600 Ry
     Harris-Foulkes estimate   =    -373.28025602 Ry
     estimated scf accuracy    <       0.00000005 Ry

     iteration #  6     ecut=    45.00 Ry     beta= 0.50
     CG style diagonalization
     ethr =  1.41E-10,  avg # of iterations =  3.3

     negative rho (up, down):  8.083E-07 0.000E+00

     total cpu time spent up to now is     1447.3 secs

     End of self-consistent calculation

          k = 0.0000 0.0000 0.0000 ( 14365 PWs)   bands (ev):

   -11.7692  -9.6171  -8.3306  -8.3303  -7.5286  -7.5285  -6.2994  -3.8250
    -3.8249  -2.8669  -2.6282  -2.5144  -2.1464  -2.1461  -1.4879  -0.7741
    -0.7733  -0.5008   0.4186   0.8912   1.0468   1.8276   1.8276   2.0742

          k = 0.0000 0.1250 0.0000 ( 14388 PWs)   bands (ev):

   -11.7056  -9.5705  -8.9361  -8.2032  -7.4439  -7.1088  -6.3071  -4.0341
    -3.7055  -3.0646  -3.0495  -2.3920  -1.9934  -1.9632  -1.6037  -1.0014
    -0.6459  -0.5144   0.3307   1.2451   1.3443   1.7641   2.1892   2.3925

          k = 0.0000 0.2500 0.0000 ( 14390 PWs)   bands (ev):

   -11.5157  -9.6145  -9.4336  -8.3950  -7.2144  -6.3971  -6.3482  -4.1694
    -3.7088  -3.6654  -3.4081  -2.7493  -1.6408  -1.5880  -1.5638  -1.1181
    -0.7865  -0.6154   0.3121   1.5728   2.0196   2.1030   2.1415   2.9693

          k = 0.0000 0.3750 0.0000 ( 14358 PWs)   bands (ev):

   -11.2033 -10.2376  -9.2213  -8.6641  -6.9426  -6.4646  -5.6667  -4.3131
    -4.1081  -3.7524  -3.6768  -3.3199  -1.5615  -1.3806  -1.1700  -1.1541
    -0.7684  -0.5015   0.1196   0.8409   2.7660   2.7885   3.2560   3.3737

          k = 0.0000-0.5000 0.0000 ( 14338 PWs)   bands (ev):

   -10.7970 -10.7499  -8.9689  -8.9378  -6.6760  -6.6725  -4.9855  -4.9573
    -3.8298  -3.7997  -3.7795  -3.7675  -1.4502  -1.4288  -1.1936  -1.1713
    -0.2867  -0.2766   0.0663   0.0899   3.1407   3.1491   3.6720   3.6812

          k = 0.1250 0.1250 0.0000 ( 14393 PWs)   bands (ev):

   -11.6390  -9.4734  -8.9235  -8.9230  -6.8169  -6.8168  -6.4264  -4.0038
    -4.0035  -3.4928  -3.0598  -2.5363  -1.7704  -1.6864  -1.6846  -1.0605
    -1.0601  -0.4312   0.5441   1.1418   1.8809   2.3197   2.3589   2.3688

          k = 0.1250 0.2500 0.0000 ( 14395 PWs)   bands (ev):

   -11.4481  -9.6029  -9.2834  -8.9850  -6.6266  -6.5647  -6.1884  -4.1100
    -3.9219  -3.8192  -3.7575  -2.7004  -1.6187  -1.4787  -1.3081  -1.1640
    -1.0729  -0.6703   0.5668   1.5849   1.9797   2.5382   2.7252   3.0619

          k = 0.1250 0.3750 0.0000 ( 14386 PWs)   bands (ev):

   -11.1374 -10.2140  -9.0936  -9.0038  -6.9238  -6.3568  -5.7080  -4.5181
    -3.9163  -3.8614  -3.7555  -3.1170  -1.7674  -1.3520  -1.1236  -1.0606
    -0.8216  -0.5823   0.3454   1.2651   2.5145   2.8208   3.1705   3.3061

          k = 0.1250-0.5000 0.0000 ( 14382 PWs)   bands (ev):

   -10.7525 -10.7005  -9.2322  -8.6552  -7.2715  -6.2146  -5.3269  -5.2652
    -3.8063  -3.5293  -3.5000  -3.3139  -1.8350  -1.4627  -1.2346  -1.1463
    -0.2663  -0.0780  -0.0049   0.4733   3.1295   3.1484   3.5405   3.5863

          k = 0.2500 0.2500 0.0000 ( 14420 PWs)   bands (ev):

   -11.2621  -9.5741  -9.5738  -9.0450  -7.0157  -6.0845  -6.0843  -4.4903
    -3.9837  -3.8477  -3.8469  -2.2858  -1.5736  -1.5430  -1.5424  -0.9880
    -0.8482  -0.8474   0.9087   1.4645   1.9896   2.6249   3.1607   3.1619

          k = 0.2500 0.3750 0.0000 ( 14427 PWs)   bands (ev):

   -10.9664 -10.1244  -9.5380  -8.7200  -7.4579  -6.0228  -5.8617  -5.2232
    -3.9075  -3.4639  -3.3706  -2.4076  -1.9099  -1.4951  -1.4470  -1.2963
    -0.6041  -0.3417   0.9629   1.5317   1.9247   2.8636   3.2464   3.3241

          k = 0.2500-0.5000 0.0000 ( 14440 PWs)   bands (ev):

   -10.6212 -10.5668  -9.5169  -8.3180  -7.8638  -5.9901  -5.9018  -5.6967
    -3.6596  -3.0197  -2.7893  -2.6829  -2.1092  -1.9158  -1.4230  -1.0807
    -0.3897   0.0727   0.7458   0.8505   2.6841   2.7192   3.1605   3.1879

          k = 0.3750 0.3750 0.0000 ( 14444 PWs)   bands (ev):

   -10.7099  -9.9836  -9.9830  -8.3604  -7.9599  -5.9522  -5.9406  -5.8986
    -3.7098  -2.8902  -2.8898  -1.9744  -1.9603  -1.8563  -1.8532  -1.1623
    -0.2478  -0.2477   1.4487   1.5178   1.7001   3.0108   3.0144   3.0701

          k = 0.3750-0.5000 0.0000 ( 14438 PWs)   bands (ev):

   -10.4318 -10.3814  -9.8185  -8.3257  -7.9509  -6.4945  -5.9478  -5.9059
    -3.3856  -2.5522  -2.4294  -2.2638  -2.1080  -2.0559  -1.6868  -0.9866
    -0.2716   0.0543   1.1543   1.4945   1.9697   2.1267   2.3646   2.9087

          k =-0.5000-0.5000 0.0000 ( 14440 PWs)   bands (ev):

   -10.3392 -10.1223 -10.1186  -8.5098  -7.7262  -6.7998  -5.9623  -5.9616
    -3.1271  -2.7730  -2.3015  -2.3011  -1.8365  -1.8199  -1.7989  -0.9218
    -0.0819  -0.0818   1.2750   1.6464   1.8266   1.9572   1.9579   3.5263

          k =-0.1250 0.1250 0.0000 ( 14393 PWs)   bands (ev):

   -11.6463  -9.5786  -9.1564  -7.8217  -7.4787  -7.4370  -6.2270  -4.0416
    -3.6910  -3.4366  -2.7789  -2.1146  -2.1057  -1.9581  -1.4767  -0.8621
    -0.8275  -0.3645   0.0725   1.3288   1.5350   1.5562   1.7112   2.4813

          k =-0.1250 0.2500 0.0000 ( 14395 PWs)   bands (ev):

   -11.4623  -9.6429  -9.5076  -7.8513  -7.8083  -6.7322  -6.1708  -4.3319
    -3.9911  -3.4034  -2.8831  -2.1707  -2.0589  -1.6091  -1.5016  -1.2663
    -0.6387  -0.2454   0.1718   1.0194   1.6256   1.7896   2.1555   2.8584

          k =-0.1250 0.3750 0.0000 ( 14386 PWs)   bands (ev):

   -11.1576 -10.2018  -9.3826  -8.2560  -7.5943  -6.1565  -6.0034  -4.8840
    -3.8233  -3.5873  -3.1928  -2.6739  -1.8141  -1.6503  -1.3923  -1.1988
    -0.3514  -0.0883   0.2141   0.3573   2.3184   2.4795   3.0450   3.2332

          k =-0.2500 0.2500 0.0000 ( 14420 PWs)   bands (ev):

   -11.2893  -9.7998  -9.5263  -8.1639  -7.5328  -6.9364  -6.0581  -4.9471
    -3.6443  -3.1903  -2.5323  -2.3873  -1.8367  -1.7657  -1.4752  -1.3948
    -0.0673   0.0159   0.1181   0.4336   1.5781   1.8762   1.9939   2.7837

          k =-0.2500 0.3750 0.0000 ( 14427 PWs)   bands (ev):

   -11.0018 -10.1526  -9.5189  -8.1431  -7.8685  -6.5097  -5.9970  -5.4103
    -3.3374  -3.2241  -2.6141  -2.2986  -2.0868  -2.0530  -1.4441  -1.1191
    -0.0599   0.2186   0.3042   0.4056   1.8766   2.3861   2.4452   2.8047

          k =-0.3750 0.3750 0.0000 ( 14444 PWs)   bands (ev):

   -10.7436 -10.1990  -9.6595  -8.4180  -7.6684  -6.8021  -5.9449  -5.7533
    -3.1273  -2.6689  -2.5895  -2.3809  -2.1793  -1.8487  -1.5698  -0.9980
    -0.2659   0.1740   0.7092   1.1129   1.7408   2.1018   2.4172   2.7505

     the Fermi energy is    -0.9331 ev

!    total energy              =    -373.28025601 Ry
     Harris-Foulkes estimate   =    -373.28025601 Ry
     estimated scf accuracy    <          4.1E-10 Ry

     convergence has been achieved in   6 iterations

     negative rho (up, down):  8.083E-07 0.000E+00

     Forces acting on atoms (cartesian axes, Ry/au):

     atom    1 type  1   force =     0.00514244    0.00514244   -0.00396192
     atom    2 type  1   force =     0.00446115   -0.00027629    0.00073345
     atom    3 type  1   force =    -0.00027629    0.00446115    0.00073345
     atom    4 type  1   force =    -0.00073728   -0.00073728    0.00064428
     atom    5 type  1   force =     0.00006006    0.00006006   -0.00099259
     atom    6 type  1   force =    -0.00344200   -0.00082838    0.00154116
     atom    7 type  1   force =    -0.00082838   -0.00344200    0.00154116
     atom    8 type  1   force =    -0.00437970   -0.00437970   -0.00023899

     Total force =     0.013429     Total SCF correction =     0.000015


     Computing stress (Cartesian axis) and pressure


     negative rho (up, down):  8.083E-07 0.000E+00
          total   stress  (Ry/bohr**3)                   (kbar)     P=   -7.78
  -0.00008411   0.00004013  -0.00000782        -12.37      5.90     -1.15
   0.00004013  -0.00008411  -0.00000782          5.90    -12.37     -1.15
  -0.00000782  -0.00000782   0.00000962         -1.15     -1.15      1.42


     Entering Dynamics:    iteration =     2

     <vel(dt)|acc(dt)> =   0.99226900

ATOMIC_POSITIONS (angstrom)
Si       0.006661512   0.006661512   4.377527906
Si       0.005905231   2.733232032   7.129697764
Si       2.733232032   0.005905231   7.129697764
Si       2.732700278   2.732700278   4.383503922
Si       1.367173238   1.367173238   5.719046735
Si       1.362318444   4.099949243   8.468428041
Si       4.099949243   1.362318444   8.468428041
Si       4.095086770   4.095086770   5.719820302



     Writing output data file Si.Fd-3m_1ML.save/
     NEW-OLD atomic charge density approx. for the potential

     negative rho (up, down):  8.182E-07 0.000E+00

     total cpu time spent up to now is     1455.7 secs

     Self-consistent Calculation

     iteration #  1     ecut=    45.00 Ry     beta= 0.50
     CG style diagonalization
     c_bands:  2 eigenvalues not converged
     c_bands:  1 eigenvalues not converged
     ethr =  1.00E-06,  avg # of iterations =  6.4

     negative rho (up, down):  7.719E-07 0.000E+00

     total cpu time spent up to now is     1579.7 secs

     total energy              =    -373.28049327 Ry
     Harris-Foulkes estimate   =    -373.28070642 Ry
     estimated scf accuracy    <       0.00003434 Ry

     iteration #  2     ecut=    45.00 Ry     beta= 0.50
     CG style diagonalization
     ethr =  1.07E-07,  avg # of iterations =  3.7

     negative rho (up, down):  7.339E-07 0.000E+00

     total cpu time spent up to now is     1647.9 secs

     total energy              =    -373.28050156 Ry
     Harris-Foulkes estimate   =    -373.28051339 Ry
     estimated scf accuracy    <       0.00002710 Ry

     iteration #  3     ecut=    45.00 Ry     beta= 0.50
     CG style diagonalization
     ethr =  8.47E-08,  avg # of iterations =  3.3

     negative rho (up, down):  7.385E-07 0.000E+00

     total cpu time spent up to now is     1714.4 secs

     total energy              =    -373.28050713 Ry
     Harris-Foulkes estimate   =    -373.28050748 Ry
     estimated scf accuracy    <       0.00000180 Ry

     iteration #  4     ecut=    45.00 Ry     beta= 0.50
     CG style diagonalization
     ethr =  5.63E-09,  avg # of iterations =  3.6

     negative rho (up, down):  7.509E-07 0.000E+00

     total cpu time spent up to now is     1776.2 secs

     total energy              =    -373.28050730 Ry
     Harris-Foulkes estimate   =    -373.28050754 Ry
     estimated scf accuracy    <       0.00000069 Ry

     iteration #  5     ecut=    45.00 Ry     beta= 0.50
     CG style diagonalization
     ethr =  2.17E-09,  avg # of iterations =  3.1

     negative rho (up, down):  7.610E-07 0.000E+00

     total cpu time spent up to now is     1834.1 secs

     total energy              =    -373.28050740 Ry
     Harris-Foulkes estimate   =    -373.28050741 Ry
     estimated scf accuracy    <       0.00000003 Ry

     iteration #  6     ecut=    45.00 Ry     beta= 0.50
     CG style diagonalization
     ethr =  8.73E-11,  avg # of iterations =  4.2

     negative rho (up, down):  7.904E-07 0.000E+00

     total cpu time spent up to now is     1891.5 secs

     End of self-consistent calculation

          k = 0.0000 0.0000 0.0000 ( 14365 PWs)   bands (ev):

   -11.7627  -9.6150  -8.3247  -8.3243  -7.5257  -7.5254  -6.2999  -3.8223
    -3.8222  -2.8600  -2.6205  -2.5180  -2.1434  -2.1432  -1.4845  -0.7750
    -0.7741  -0.5006   0.4201   0.8979   1.0498   1.8248   1.8255   2.0749

          k = 0.0000 0.1250 0.0000 ( 14388 PWs)   bands (ev):

   -11.6991  -9.5683  -8.9305  -8.1983  -7.4404  -7.1055  -6.3073  -4.0307
    -3.7031  -3.0571  -3.0464  -2.3912  -1.9902  -1.9610  -1.6014  -1.0021
    -0.6469  -0.5150   0.3325   1.2522   1.3477   1.7618   2.1892   2.3946

          k = 0.0000 0.2500 0.0000 ( 14390 PWs)   bands (ev):

   -11.5092  -9.6082  -9.4319  -8.3913  -7.2106  -6.3936  -6.3478  -4.1653
    -3.7039  -3.6634  -3.4027  -2.7469  -1.6397  -1.5841  -1.5653  -1.1180
    -0.7866  -0.6168   0.3123   1.5732   2.0256   2.1054   2.1431   2.9648

          k = 0.0000 0.3750 0.0000 ( 14358 PWs)   bands (ev):

   -11.1966 -10.2318  -9.2188  -8.6613  -6.9390  -6.4630  -5.6631  -4.3085
    -4.1036  -3.7500  -3.6728  -3.3166  -1.5615  -1.3814  -1.1692  -1.1541
    -0.7679  -0.5015   0.1190   0.8417   2.7708   2.7846   3.2637   3.3738

          k = 0.0000-0.5000 0.0000 ( 14338 PWs)   bands (ev):

   -10.7804 -10.7541  -8.9583  -8.9433  -6.6737  -6.6693  -4.9791  -4.9559
    -3.8208  -3.7984  -3.7757  -3.7672  -1.4524  -1.4261  -1.1935  -1.1737
    -0.2839  -0.2797   0.0647   0.0936   3.1417   3.1446   3.6757   3.6805

          k = 0.1250 0.1250 0.0000 ( 14393 PWs)   bands (ev):

   -11.6325  -9.4710  -8.9186  -8.9181  -6.8133  -6.8131  -6.4261  -4.0006
    -4.0003  -3.4873  -3.0605  -2.5287  -1.7692  -1.6841  -1.6830  -1.0616
    -1.0611  -0.4326   0.5455   1.1483   1.8865   2.3269   2.3550   2.3595

          k = 0.1250 0.2500 0.0000 ( 14395 PWs)   bands (ev):

   -11.4415  -9.5972  -9.2812  -8.9811  -6.6251  -6.5613  -6.1848  -4.1060
    -3.9180  -3.8151  -3.7576  -2.6935  -1.6191  -1.4792  -1.3063  -1.1625
    -1.0744  -0.6717   0.5679   1.5914   1.9814   2.5402   2.7219   3.0604

          k = 0.1250 0.3750 0.0000 ( 14386 PWs)   bands (ev):

   -11.1307 -10.2085  -9.0882  -9.0035  -6.9211  -6.3540  -5.7039  -4.5164
    -3.9136  -3.8579  -3.7519  -3.1104  -1.7677  -1.3529  -1.1247  -1.0613
    -0.8208  -0.5822   0.3462   1.2669   2.5217   2.8190   3.1712   3.3034

          k = 0.1250-0.5000 0.0000 ( 14382 PWs)   bands (ev):

   -10.7376 -10.7031  -9.2289  -8.6532  -7.2679  -6.2127  -5.3209  -5.2642
    -3.8046  -3.5212  -3.4972  -3.3111  -1.8349  -1.4630  -1.2356  -1.1474
    -0.2662  -0.0787  -0.0039   0.4753   3.1286   3.1492   3.5449   3.5832

          k = 0.2500 0.2500 0.0000 ( 14420 PWs)   bands (ev):

   -11.2554  -9.5690  -9.5687  -9.0434  -7.0130  -6.0811  -6.0811  -4.4889
    -3.9812  -3.8439  -3.8431  -2.2782  -1.5752  -1.5433  -1.5432  -0.9889
    -0.8474  -0.8472   0.9101   1.4707   1.9919   2.6231   3.1606   3.1616

          k = 0.2500 0.3750 0.0000 ( 14427 PWs)   bands (ev):

   -10.9595 -10.1192  -9.5335  -8.7181  -7.4544  -6.0202  -5.8579  -5.2219
    -3.9061  -3.4595  -3.3670  -2.4005  -1.9102  -1.4952  -1.4485  -1.2974
    -0.6042  -0.3421   0.9642   1.5344   1.9310   2.8610   3.2477   3.3250

          k = 0.2500-0.5000 0.0000 ( 14440 PWs)   bands (ev):

   -10.6072 -10.5685  -9.5132  -8.3157  -7.8601  -5.9873  -5.9008  -5.6927
    -3.6590  -3.0147  -2.7826  -2.6802  -2.1089  -1.9163  -1.4237  -1.0816
    -0.3904   0.0716   0.7474   0.8528   2.6899   2.7217   3.1659   3.1854

          k = 0.3750 0.3750 0.0000 ( 14444 PWs)   bands (ev):

   -10.7027  -9.9789  -9.9784  -8.3580  -7.9563  -5.9435  -5.9376  -5.9029
    -3.7092  -2.8868  -2.8863  -1.9668  -1.9595  -1.8560  -1.8542  -1.1637
    -0.2489  -0.2488   1.4514   1.5199   1.7054   3.0184   3.0191   3.0665

          k = 0.3750-0.5000 0.0000 ( 14438 PWs)   bands (ev):

   -10.4164 -10.3844  -9.8145  -8.3206  -7.9498  -6.4924  -5.9460  -5.9024
    -3.3856  -2.5509  -2.4291  -2.2625  -2.1002  -2.0535  -1.6848  -0.9877
    -0.2731   0.0529   1.1581   1.4955   1.9731   2.1310   2.3689   2.9075

          k =-0.5000-0.5000 0.0000 ( 14440 PWs)   bands (ev):

   -10.3297 -10.1176 -10.1161  -8.5049  -7.7248  -6.7978  -5.9593  -5.9592
    -3.1276  -2.7727  -2.3026  -2.3023  -1.8293  -1.8146  -1.7935  -0.9231
    -0.0836  -0.0835   1.2791   1.6497   1.8274   1.9618   1.9620   2.8083

          k =-0.1250 0.1250 0.0000 ( 14393 PWs)   bands (ev):

   -11.6398  -9.5762  -9.1506  -7.8161  -7.4758  -7.4346  -6.2273  -4.0374
    -3.6850  -3.4355  -2.7724  -2.1110  -2.1094  -1.9548  -1.4730  -0.8636
    -0.8261  -0.3658   0.0752   1.3303   1.5338   1.5599   1.7115   2.4873

          k =-0.1250 0.2500 0.0000 ( 14395 PWs)   bands (ev):

   -11.4559  -9.6361  -9.5061  -7.8398  -7.8126  -6.7293  -6.1707  -4.3260
    -3.9862  -3.4024  -2.8769  -2.1707  -2.0585  -1.6058  -1.5000  -1.2664
    -0.6381  -0.2463   0.1728   1.0190   1.6285   1.7882   2.1595   2.8540

          k =-0.1250 0.3750 0.0000 ( 14386 PWs)   bands (ev):

   -11.1510 -10.1959  -9.3800  -8.2533  -7.5905  -6.1555  -6.0010  -4.8785
    -3.8174  -3.5861  -3.1874  -2.6719  -1.8142  -1.6499  -1.3931  -1.1977
    -0.3508  -0.0879   0.2132   0.3572   2.3237   2.4785   3.0494   3.2281

          k =-0.2500 0.2500 0.0000 ( 14420 PWs)   bands (ev):

   -11.2829  -9.7932  -9.5241  -8.1590  -7.5310  -6.9339  -6.0579  -4.9415
    -3.6383  -3.1899  -2.5259  -2.3868  -1.8395  -1.7649  -1.4719  -1.3923
    -0.0668   0.0157   0.1198   0.4330   1.5797   1.8754   1.9974   2.7785

          k =-0.2500 0.3750 0.0000 ( 14427 PWs)   bands (ev):

   -10.9953 -10.1464  -9.5159  -8.1377  -7.8674  -6.5075  -5.9963  -5.4052
    -3.3371  -3.2175  -2.6084  -2.2984  -2.0846  -2.0542  -1.4434  -1.1184
    -0.0609   0.2181   0.3059   0.4067   1.8802   2.3900   2.4448   2.7996

          k =-0.3750 0.3750 0.0000 ( 14444 PWs)   bands (ev):

   -10.7371 -10.1929  -9.6560  -8.4132  -7.6669  -6.8001  -5.9437  -5.7488
    -3.1277  -2.6683  -2.5822  -2.3812  -2.1735  -1.8511  -1.5655  -0.9984
    -0.2673   0.1734   0.7122   1.1140   1.7441   2.1060   2.4142   2.7504

     the Fermi energy is    -0.9335 ev

!    total energy              =    -373.28050742 Ry
     Harris-Foulkes estimate   =    -373.28050742 Ry
     estimated scf accuracy    <          2.3E-09 Ry

     convergence has been achieved in   6 iterations

     negative rho (up, down):  7.904E-07 0.000E+00

     Forces acting on atoms (cartesian axes, Ry/au):

     atom    1 type  1   force =     0.00192621    0.00192621   -0.00218695
     atom    2 type  1   force =     0.00198499   -0.00085980    0.00058963
     atom    3 type  1   force =    -0.00085980    0.00198499    0.00058963
     atom    4 type  1   force =    -0.00082679   -0.00082679   -0.00013178
     atom    5 type  1   force =     0.00025612    0.00025612   -0.00046498
     atom    6 type  1   force =    -0.00205434    0.00090826    0.00115916
     atom    7 type  1   force =     0.00090826   -0.00205434    0.00115916
     atom    8 type  1   force =    -0.00133466   -0.00133466   -0.00071386

     Total force =     0.006391     Total SCF correction =     0.000036


     Computing stress (Cartesian axis) and pressure


     negative rho (up, down):  7.904E-07 0.000E+00
          total   stress  (Ry/bohr**3)                   (kbar)     P=   -8.00
  -0.00008511   0.00003991  -0.00000202        -12.52      5.87     -0.30
   0.00003991  -0.00008511  -0.00000202          5.87    -12.52     -0.30
  -0.00000202  -0.00000202   0.00000708         -0.30     -0.30      1.04


     Entering Dynamics:    iteration =     3

     <vel(dt)|acc(dt)> =   0.97878272

ATOMIC_POSITIONS (angstrom)
Si       0.013116966   0.013116966   4.371280261
Si       0.012134819   2.731452019   7.131224343
Si       2.731452019   0.012134819   7.131224343
Si       2.730727335   2.730727335   4.383655425
Si       1.367723180   1.367723180   5.717622699
Si       1.356662108   4.101069493   8.471424372
Si       4.101069493   1.356662108   8.471424372
Si       4.090140826   4.090140826   5.718294662



     Writing output data file Si.Fd-3m_1ML.save/
     NEW-OLD atomic charge density approx. for the potential

     negative rho (up, down):  8.080E-07 0.000E+00

     total cpu time spent up to now is     1899.3 secs

     Self-consistent Calculation

     iteration #  1     ecut=    45.00 Ry     beta= 0.50
     CG style diagonalization
     c_bands:  1 eigenvalues not converged
     c_bands:  2 eigenvalues not converged
     c_bands:  1 eigenvalues not converged
     c_bands:  2 eigenvalues not converged
     ethr =  1.00E-06,  avg # of iterations =  7.9

     negative rho (up, down):  7.240E-07 0.000E+00

     total cpu time spent up to now is     2046.0 secs

     total energy              =    -373.28056925 Ry
     Harris-Foulkes estimate   =    -373.28082308 Ry
     estimated scf accuracy    <       0.00008341 Ry

     iteration #  2     ecut=    45.00 Ry     beta= 0.50
     CG style diagonalization
     ethr =  2.61E-07,  avg # of iterations =  3.4

     negative rho (up, down):  6.705E-07 0.000E+00

     total cpu time spent up to now is     2113.0 secs

     total energy              =    -373.28057611 Ry
     Harris-Foulkes estimate   =    -373.28059652 Ry
     estimated scf accuracy    <       0.00004041 Ry

     iteration #  3     ecut=    45.00 Ry     beta= 0.50
     CG style diagonalization
     ethr =  1.26E-07,  avg # of iterations =  3.6

     negative rho (up, down):  6.976E-07 0.000E+00

     total cpu time spent up to now is     2182.3 secs

     total energy              =    -373.28058751 Ry
     Harris-Foulkes estimate   =    -373.28059167 Ry
     estimated scf accuracy    <       0.00001028 Ry

     iteration #  4     ecut=    45.00 Ry     beta= 0.50
     CG style diagonalization
     ethr =  3.21E-08,  avg # of iterations =  3.3

     negative rho (up, down):  7.031E-07 0.000E+00

     total cpu time spent up to now is     2247.7 secs

     total energy              =    -373.28058948 Ry
     Harris-Foulkes estimate   =    -373.28058956 Ry
     estimated scf accuracy    <       0.00000040 Ry

     iteration #  5     ecut=    45.00 Ry     beta= 0.50
     CG style diagonalization
     ethr =  1.25E-09,  avg # of iterations =  4.0

     negative rho (up, down):  7.094E-07 0.000E+00

     total cpu time spent up to now is     2314.8 secs

     total energy              =    -373.28058964 Ry
     Harris-Foulkes estimate   =    -373.28058968 Ry
     estimated scf accuracy    <       0.00000014 Ry

     iteration #  6     ecut=    45.00 Ry     beta= 0.50
     CG style diagonalization
     ethr =  4.39E-10,  avg # of iterations =  3.2

     negative rho (up, down):  7.237E-07 0.000E+00

     total cpu time spent up to now is     2370.4 secs

     total energy              =    -373.28058966 Ry
     Harris-Foulkes estimate   =    -373.28058967 Ry
     estimated scf accuracy    <       0.00000002 Ry

     iteration #  7     ecut=    45.00 Ry     beta= 0.50
     CG style diagonalization
     ethr =  5.31E-11,  avg # of iterations =  3.6

     negative rho (up, down):  7.566E-07 0.000E+00

     total cpu time spent up to now is     2419.0 secs

     End of self-consistent calculation

          k = 0.0000 0.0000 0.0000 ( 14365 PWs)   bands (ev):

   -11.7519  -9.6123  -8.3153  -8.3149  -7.5200  -7.5195  -6.3008  -3.8178
    -3.8173  -2.8487  -2.6069  -2.5235  -2.1381  -2.1380  -1.4794  -0.7768
    -0.7755  -0.4996   0.4222   0.9095   1.0541   1.8195   1.8213   2.0762

          k = 0.0000 0.1250 0.0000 ( 14388 PWs)   bands (ev):

   -11.6883  -9.5656  -8.9209  -8.1908  -7.4336  -7.0993  -6.3078  -4.0247
    -3.6990  -3.0500  -3.0351  -2.3897  -1.9847  -1.9569  -1.5979  -1.0033
    -0.6489  -0.5152   0.3352   1.2640   1.3529   1.7576   2.1900   2.3974

          k = 0.0000 0.2500 0.0000 ( 14390 PWs)   bands (ev):

   -11.4985  -9.5985  -9.4290  -8.3855  -7.2037  -6.3873  -6.3471  -4.1581
    -3.6983  -3.6570  -3.3934  -2.7425  -1.6382  -1.5788  -1.5660  -1.1178
    -0.7864  -0.6189   0.3124   1.5739   2.0329   2.1046   2.1532   2.9570

          k = 0.0000 0.3750 0.0000 ( 14358 PWs)   bands (ev):

   -11.1859 -10.2219  -9.2155  -8.6568  -6.9327  -6.4603  -5.6569  -4.3004
    -4.0959  -3.7462  -3.6653  -3.3105  -1.5618  -1.3831  -1.1701  -1.1513
    -0.7669  -0.5016   0.1181   0.8431   2.7754   2.7804   3.2764   3.3750

          k = 0.0000-0.5000 0.0000 ( 14338 PWs)   bands (ev):

   -10.7595 -10.7543  -8.9499  -8.9443  -6.6693  -6.6640  -4.9774  -4.9436
    -3.8108  -3.7936  -3.7719  -3.7605  -1.4575  -1.4206  -1.1945  -1.1759
    -0.2876  -0.2767   0.0613   0.1012   3.1372   3.1427   3.6737   3.6849

          k = 0.1250 0.1250 0.0000 ( 14393 PWs)   bands (ev):

   -11.6217  -9.4684  -8.9102  -8.9096  -6.8068  -6.8065  -6.4256  -3.9953
    -3.9948  -3.4780  -3.0614  -2.5151  -1.7680  -1.6798  -1.6794  -1.0636
    -1.0627  -0.4346   0.5475   1.1597   1.8946   2.3308   2.3492   2.3523

          k = 0.1250 0.2500 0.0000 ( 14395 PWs)   bands (ev):

   -11.4307  -9.5882  -9.2784  -8.9740  -6.6225  -6.5553  -6.1783  -4.0995
    -3.9122  -3.8078  -3.7567  -2.6809  -1.6202  -1.4803  -1.3027  -1.1601
    -1.0765  -0.6736   0.5695   1.6026   1.9842   2.5429   2.7169   3.0575

          k = 0.1250 0.3750 0.0000 ( 14386 PWs)   bands (ev):

   -11.1199 -10.1990  -9.0821  -9.0010  -6.9163  -6.3490  -5.6966  -4.5136
    -3.9093  -3.8517  -3.7454  -3.0986  -1.7685  -1.3545  -1.1266  -1.0624
    -0.8189  -0.5818   0.3474   1.2700   2.5340   2.8158   3.1727   3.2954

          k = 0.1250-0.5000 0.0000 ( 14382 PWs)   bands (ev):

   -10.7219 -10.6982  -9.2243  -8.6501  -7.2615  -6.2095  -5.3141  -5.2587
    -3.8017  -3.5096  -3.4897  -3.3062  -1.8351  -1.4632  -1.2376  -1.1488
    -0.2661  -0.0802  -0.0019   0.4788   3.1242   3.1516   3.5462   3.5769

          k = 0.2500 0.2500 0.0000 ( 14420 PWs)   bands (ev):

   -11.2446  -9.5609  -9.5605  -9.0407  -7.0082  -6.0755  -6.0754  -4.4867
    -3.9769  -3.8372  -3.8365  -2.2646  -1.5796  -1.5446  -1.5427  -0.9905
    -0.8458  -0.8458   0.9121   1.4816   1.9958   2.6200   3.1601   3.1614

          k = 0.2500 0.3750 0.0000 ( 14427 PWs)   bands (ev):

   -10.9485 -10.1103  -9.5265  -8.7155  -7.4480  -6.0159  -5.8514  -5.2194
    -3.9037  -3.4522  -3.3609  -2.3877  -1.9110  -1.4968  -1.4495  -1.2991
    -0.6039  -0.3426   0.9660   1.5392   1.9419   2.8565   3.2499   3.3262

          k = 0.2500-0.5000 0.0000 ( 14440 PWs)   bands (ev):

   -10.5928 -10.5624  -9.5075  -8.3130  -7.8526  -5.9844  -5.8982  -5.6846
    -3.6577  -3.0066  -2.7703  -2.6756  -2.1086  -1.9165  -1.4249  -1.0830
    -0.3912   0.0698   0.7490   0.8576   2.6972   2.7267   3.1726   3.1822

          k = 0.3750 0.3750 0.0000 ( 14444 PWs)   bands (ev):

   -10.6915  -9.9708  -9.9704  -8.3555  -7.9488  -5.9385  -5.9324  -5.9002
    -3.7082  -2.8812  -2.8807  -1.9598  -1.9533  -1.8551  -1.8542  -1.1660
    -0.2504  -0.2504   1.4530   1.5260   1.7145   3.0245   3.0261   3.0642

          k = 0.3750-0.5000 0.0000 ( 14438 PWs)   bands (ev):

   -10.3997 -10.3809  -9.8076  -8.3130  -7.9471  -6.4895  -5.9423  -5.8958
    -3.3855  -2.5493  -2.4286  -2.2607  -2.0870  -2.0480  -1.6813  -0.9897
    -0.2752   0.0509   1.1640   1.4972   1.9782   2.1376   2.3751   2.9062

          k =-0.5000-0.5000 0.0000 ( 14440 PWs)   bands (ev):

   -10.3174 -10.1096 -10.1090  -8.4973  -7.7222  -6.7949  -5.9542  -5.9541
    -3.1287  -2.7722  -2.3047  -2.3043  -1.8191  -1.8058  -1.7808  -0.9255
    -0.0861  -0.0859   1.2855   1.6549   1.8285   1.9682   1.9687   2.8064

          k =-0.1250 0.1250 0.0000 ( 14393 PWs)   bands (ev):

   -11.6291  -9.5733  -9.1403  -7.8096  -7.4679  -7.4303  -6.2279  -4.0301
    -3.6749  -3.4331  -2.7612  -2.1141  -2.1059  -1.9490  -1.4676  -0.8669
    -0.8223  -0.3679   0.0795   1.3320   1.5309   1.5656   1.7135   2.4721

          k =-0.1250 0.2500 0.0000 ( 14395 PWs)   bands (ev):

   -11.4453  -9.6256  -9.5029  -7.8375  -7.8032  -6.7239  -6.1707  -4.3156
    -3.9773  -3.4004  -2.8664  -2.1711  -2.0570  -1.6006  -1.4980  -1.2656
    -0.6370  -0.2481   0.1745   1.0186   1.6322   1.7861   2.1655   2.8461

          k =-0.1250 0.3750 0.0000 ( 14386 PWs)   bands (ev):

   -11.1405 -10.1855  -9.3763  -8.2497  -7.5832  -6.1542  -5.9967  -4.8686
    -3.8071  -3.5841  -3.1782  -2.6687  -1.8142  -1.6492  -1.3942  -1.1956
    -0.3498  -0.0873   0.2118   0.3576   2.3310   2.4772   3.0555   3.2198

          k =-0.2500 0.2500 0.0000 ( 14420 PWs)   bands (ev):

   -11.2724  -9.7824  -9.5205  -8.1516  -7.5278  -6.9291  -6.0576  -4.9313
    -3.6276  -3.1893  -2.5150  -2.3855  -1.8437  -1.7647  -1.4656  -1.3881
    -0.0663   0.0152   0.1229   0.4327   1.5815   1.8742   2.0018   2.7697

          k =-0.2500 0.3750 0.0000 ( 14427 PWs)   bands (ev):

   -10.9851 -10.1358  -9.5113  -8.1303  -7.8642  -6.5040  -5.9950  -5.3959
    -3.3365  -3.2055  -2.5989  -2.2980  -2.0844  -2.0526  -1.4422  -1.1174
    -0.0626   0.2173   0.3088   0.4092   1.8853   2.3947   2.4445   2.7913

          k =-0.3750 0.3750 0.0000 ( 14444 PWs)   bands (ev):

   -10.7271 -10.1821  -9.6504  -8.4055  -7.6642  -6.7969  -5.9414  -5.7407
    -3.1284  -2.6676  -2.5692  -2.3816  -2.1637  -1.8548  -1.5580  -0.9992
    -0.2692   0.1727   0.7169   1.1158   1.7489   2.1114   2.4095   2.7505

     the Fermi energy is    -0.9342 ev

!    total energy              =    -373.28058967 Ry
     Harris-Foulkes estimate   =    -373.28058967 Ry
     estimated scf accuracy    <          1.4E-09 Ry

     convergence has been achieved in   7 iterations

     negative rho (up, down):  7.566E-07 0.000E+00

     Forces acting on atoms (cartesian axes, Ry/au):

     atom    1 type  1   force =    -0.00175376   -0.00175376   -0.00005461
     atom    2 type  1   force =    -0.00117616   -0.00102084    0.00027126
     atom    3 type  1   force =    -0.00102084   -0.00117616    0.00027126
     atom    4 type  1   force =    -0.00052793   -0.00052793   -0.00101190
     atom    5 type  1   force =     0.00014520    0.00014520    0.00014518
     atom    6 type  1   force =    -0.00081125    0.00304109    0.00056630
     atom    7 type  1   force =     0.00304109   -0.00081125    0.00056630
     atom    8 type  1   force =     0.00210365    0.00210365   -0.00075377

     Total force =     0.006532     Total SCF correction =     0.000025


     Computing stress (Cartesian axis) and pressure


     negative rho (up, down):  7.566E-07 0.000E+00
          total   stress  (Ry/bohr**3)                   (kbar)     P=   -8.33
  -0.00008656   0.00003981   0.00000409        -12.73      5.86      0.60
   0.00003981  -0.00008656   0.00000409          5.86    -12.73      0.60
   0.00000409   0.00000409   0.00000317          0.60      0.60      0.47


     Entering Dynamics:    iteration =     4

     <vel(dt)|acc(dt)> =  -0.66563414

ATOMIC_POSITIONS (angstrom)
Si       0.012573888   0.012573888   4.371501126
Si       0.011692710   2.731349271   7.131211265
Si       2.731349271   0.011692710   7.131211265
Si       2.730715603   2.730715603   4.383471805
Si       1.367720882   1.367720882   5.717701125
Si       1.356720673   4.101564442   8.471411084
Si       4.101564442   1.356720673   8.471411084
Si       4.090689280   4.090689280   5.718231723



     Writing output data file Si.Fd-3m_1ML.save/
     NEW-OLD atomic charge density approx. for the potential

     negative rho (up, down):  7.576E-07 0.000E+00

     total cpu time spent up to now is     2428.5 secs

     Self-consistent Calculation

     iteration #  1     ecut=    45.00 Ry     beta= 0.50
     CG style diagonalization
     ethr =  1.00E-06,  avg # of iterations =  2.0

     Threshold (ethr) on eigenvalues was too large:
     Diagonalizing with lowered threshold

     CG style diagonalization
     c_bands:  1 eigenvalues not converged
     c_bands:  4 eigenvalues not converged
     c_bands:  2 eigenvalues not converged
     c_bands:  1 eigenvalues not converged
     ethr =  4.50E-09,  avg # of iterations =  7.5

     negative rho (up, down):  7.602E-07 0.000E+00

     total cpu time spent up to now is     2597.3 secs

     total energy              =    -373.28060462 Ry
     Harris-Foulkes estimate   =    -373.28060859 Ry
     estimated scf accuracy    <       0.00000064 Ry

     iteration #  2     ecut=    45.00 Ry     beta= 0.50
     CG style diagonalization
     ethr =  1.99E-09,  avg # of iterations =  3.2

     negative rho (up, down):  7.645E-07 0.000E+00

     total cpu time spent up to now is     2656.9 secs

     total energy              =    -373.28060461 Ry
     Harris-Foulkes estimate   =    -373.28060477 Ry
     estimated scf accuracy    <       0.00000030 Ry

     iteration #  3     ecut=    45.00 Ry     beta= 0.50
     CG style diagonalization
     ethr =  9.52E-10,  avg # of iterations =  3.7

     negative rho (up, down):  7.633E-07 0.000E+00

     total cpu time spent up to now is     2718.4 secs

     total energy              =    -373.28060470 Ry
     Harris-Foulkes estimate   =    -373.28060474 Ry
     estimated scf accuracy    <       0.00000012 Ry

     iteration #  4     ecut=    45.00 Ry     beta= 0.50
     CG style diagonalization
     ethr =  3.66E-10,  avg # of iterations =  3.1

     negative rho (up, down):  7.574E-07 0.000E+00

     total cpu time spent up to now is     2758.8 secs

     End of self-consistent calculation

          k = 0.0000 0.0000 0.0000 ( 14365 PWs)   bands (ev):

   -11.7519  -9.6121  -8.3152  -8.3148  -7.5199  -7.5194  -6.3007  -3.8177
    -3.8172  -2.8486  -2.6068  -2.5234  -2.1379  -2.1379  -1.4792  -0.7767
    -0.7754  -0.4994   0.4224   0.9096   1.0543   1.8196   1.8212   2.0763

          k = 0.0000 0.1250 0.0000 ( 14388 PWs)   bands (ev):

   -11.6882  -9.5654  -8.9208  -8.1907  -7.4336  -7.0993  -6.3077  -4.0246
    -3.6989  -3.0497  -3.0353  -2.3896  -1.9846  -1.9568  -1.5978  -1.0032
    -0.6488  -0.5150   0.3353   1.2640   1.3529   1.7577   2.1901   2.3972

          k = 0.0000 0.2500 0.0000 ( 14390 PWs)   bands (ev):

   -11.4984  -9.5984  -9.4288  -8.3854  -7.2036  -6.3872  -6.3470  -4.1580
    -3.6983  -3.6568  -3.3933  -2.7424  -1.6381  -1.5791  -1.5655  -1.1177
    -0.7863  -0.6187   0.3126   1.5740   2.0330   2.1047   2.1532   2.9569

          k = 0.0000 0.3750 0.0000 ( 14358 PWs)   bands (ev):

   -11.1858 -10.2218  -9.2154  -8.6567  -6.9327  -6.4601  -5.6568  -4.3003
    -4.0958  -3.7460  -3.6652  -3.3104  -1.5617  -1.3830  -1.1701  -1.1511
    -0.7668  -0.5015   0.1182   0.8432   2.7755   2.7803   3.2764   3.3748

          k = 0.0000-0.5000 0.0000 ( 14338 PWs)   bands (ev):

   -10.7591 -10.7545  -8.9491  -8.9448  -6.6691  -6.6641  -4.9772  -4.9437
    -3.8113  -3.7930  -3.7717  -3.7605  -1.4577  -1.4202  -1.1947  -1.1755
    -0.2871  -0.2769   0.0611   0.1017   3.1376   3.1424   3.6738   3.6846

          k = 0.1250 0.1250 0.0000 ( 14393 PWs)   bands (ev):

   -11.6216  -9.4682  -8.9101  -8.9096  -6.8067  -6.8064  -6.4255  -3.9952
    -3.9947  -3.4779  -3.0612  -2.5151  -1.7680  -1.6797  -1.6792  -1.0635
    -1.0625  -0.4345   0.5477   1.1598   1.8947   2.3312   2.3492   2.3522

          k = 0.1250 0.2500 0.0000 ( 14395 PWs)   bands (ev):

   -11.4306  -9.5881  -9.2783  -8.9739  -6.6223  -6.5552  -6.1782  -4.0994
    -3.9122  -3.8077  -3.7565  -2.6809  -1.6201  -1.4802  -1.3027  -1.1600
    -1.0764  -0.6734   0.5696   1.6026   1.9844   2.5429   2.7169   3.0574

          k = 0.1250 0.3750 0.0000 ( 14386 PWs)   bands (ev):

   -11.1198 -10.1989  -9.0819  -9.0009  -6.9162  -6.3489  -5.6965  -4.5135
    -3.9092  -3.8516  -3.7453  -3.0985  -1.7684  -1.3544  -1.1265  -1.0623
    -0.8187  -0.5816   0.3476   1.2701   2.5340   2.8159   3.1726   3.2955

          k = 0.1250-0.5000 0.0000 ( 14382 PWs)   bands (ev):

   -10.7217 -10.6982  -9.2241  -8.6500  -7.2614  -6.2094  -5.3140  -5.2587
    -3.8016  -3.5100  -3.4892  -3.3060  -1.8350  -1.4630  -1.2375  -1.1487
    -0.2660  -0.0801  -0.0018   0.4789   3.1243   3.1516   3.5459   3.5772

          k = 0.2500 0.2500 0.0000 ( 14420 PWs)   bands (ev):

   -11.2445  -9.5608  -9.5604  -9.0406  -7.0082  -6.0754  -6.0753  -4.4866
    -3.9768  -3.8371  -3.8364  -2.2645  -1.5795  -1.5445  -1.5427  -0.9903
    -0.8457  -0.8457   0.9122   1.4816   1.9959   2.6201   3.1600   3.1615

          k = 0.2500 0.3750 0.0000 ( 14427 PWs)   bands (ev):

   -10.9485 -10.1102  -9.5264  -8.7153  -7.4479  -6.0158  -5.8513  -5.2193
    -3.9036  -3.4521  -3.3608  -2.3876  -1.9108  -1.4968  -1.4492  -1.2989
    -0.6038  -0.3424   0.9662   1.5393   1.9420   2.8565   3.2498   3.3260

          k = 0.2500-0.5000 0.0000 ( 14440 PWs)   bands (ev):

   -10.5927 -10.5624  -9.5073  -8.3128  -7.8526  -5.9843  -5.8981  -5.6845
    -3.6576  -3.0065  -2.7703  -2.6754  -2.1086  -1.9164  -1.4248  -1.0829
    -0.3911   0.0700   0.7492   0.8577   2.6973   2.7267   3.1723   3.1822

          k = 0.3750 0.3750 0.0000 ( 14444 PWs)   bands (ev):

   -10.6914  -9.9707  -9.9703  -8.3553  -7.9488  -5.9383  -5.9323  -5.9002
    -3.7081  -2.8810  -2.8806  -1.9599  -1.9533  -1.8550  -1.8539  -1.1659
    -0.2503  -0.2502   1.4533   1.5260   1.7146   3.0247   3.0260   3.0639

          k = 0.3750-0.5000 0.0000 ( 14438 PWs)   bands (ev):

   -10.3995 -10.3810  -9.8074  -8.3129  -7.9470  -6.4894  -5.9422  -5.8957
    -3.3854  -2.5492  -2.4285  -2.2606  -2.0871  -2.0477  -1.6811  -0.9896
    -0.2751   0.0510   1.1641   1.4974   1.9783   2.1377   2.3751   2.9062

          k =-0.5000-0.5000 0.0000 ( 14440 PWs)   bands (ev):

   -10.3173 -10.1094 -10.1090  -8.4971  -7.7221  -6.7948  -5.9541  -5.9540
    -3.1286  -2.7721  -2.3045  -2.3041  -1.8196  -1.8057  -1.7801  -0.9254
    -0.0860  -0.0857   1.2856   1.6550   1.8286   1.9682   1.9688   2.8063

          k =-0.1250 0.1250 0.0000 ( 14393 PWs)   bands (ev):

   -11.6290  -9.5731  -9.1402  -7.8093  -7.4679  -7.4302  -6.2278  -4.0301
    -3.6748  -3.4330  -2.7611  -2.1137  -2.1061  -1.9489  -1.4674  -0.8670
    -0.8220  -0.3678   0.0796   1.3321   1.5310   1.5656   1.7136   2.4720

          k =-0.1250 0.2500 0.0000 ( 14395 PWs)   bands (ev):

   -11.4452  -9.6255  -9.5028  -7.8365  -7.8040  -6.7238  -6.1706  -4.3156
    -3.9772  -3.4003  -2.8663  -2.1710  -2.0569  -1.6006  -1.4978  -1.2655
    -0.6369  -0.2479   0.1746   1.0187   1.6323   1.7862   2.1655   2.8461

          k =-0.1250 0.3750 0.0000 ( 14386 PWs)   bands (ev):

   -11.1404 -10.1855  -9.3761  -8.2496  -7.5832  -6.1541  -5.9966  -4.8685
    -3.8071  -3.5840  -3.1781  -2.6685  -1.8141  -1.6491  -1.3941  -1.1955
    -0.3496  -0.0872   0.2119   0.3578   2.3311   2.4773   3.0553   3.2199

          k =-0.2500 0.2500 0.0000 ( 14420 PWs)   bands (ev):

   -11.2723  -9.7823  -9.5204  -8.1514  -7.5277  -6.9291  -6.0575  -4.9313
    -3.6276  -3.1892  -2.5149  -2.3854  -1.8436  -1.7646  -1.4655  -1.3880
    -0.0662   0.0153   0.1231   0.4328   1.5817   1.8743   2.0019   2.7698

          k =-0.2500 0.3750 0.0000 ( 14427 PWs)   bands (ev):

   -10.9850 -10.1357  -9.5112  -8.1301  -7.8642  -6.5039  -5.9949  -5.3958
    -3.3364  -3.2055  -2.5988  -2.2979  -2.0840  -2.0527  -1.4421  -1.1173
    -0.0625   0.2174   0.3090   0.4094   1.8854   2.3947   2.4447   2.7913

          k =-0.3750 0.3750 0.0000 ( 14444 PWs)   bands (ev):

   -10.7270 -10.1821  -9.6502  -8.4054  -7.6641  -6.7968  -5.9413  -5.7406
    -3.1282  -2.6675  -2.5692  -2.3814  -2.1636  -1.8547  -1.5579  -0.9991
    -0.2691   0.1728   0.7170   1.1160   1.7490   2.1115   2.4095   2.7506

     the Fermi energy is    -0.9341 ev

!    total energy              =    -373.28060471 Ry
     Harris-Foulkes estimate   =    -373.28060472 Ry
     estimated scf accuracy    <          9.2E-09 Ry

     convergence has been achieved in   4 iterations

     negative rho (up, down):  7.574E-07 0.000E+00

     Forces acting on atoms (cartesian axes, Ry/au):

     atom    1 type  1   force =    -0.00140867   -0.00140867   -0.00019495
     atom    2 type  1   force =    -0.00091484   -0.00087178    0.00028079
     atom    3 type  1   force =    -0.00087178   -0.00091484    0.00028079
     atom    4 type  1   force =    -0.00045758   -0.00045758   -0.00087374
     atom    5 type  1   force =     0.00008908    0.00008908    0.00006937
     atom    6 type  1   force =    -0.00105524    0.00286834    0.00056402
     atom    7 type  1   force =     0.00286834   -0.00105524    0.00056402
     atom    8 type  1   force =     0.00175069    0.00175069   -0.00069030

     Total force =     0.005872     Total SCF correction =     0.000073


     Computing stress (Cartesian axis) and pressure


     negative rho (up, down):  7.574E-07 0.000E+00
          total   stress  (Ry/bohr**3)                   (kbar)     P=   -8.33
  -0.00008656   0.00003981   0.00000333        -12.73      5.86      0.49
   0.00003981  -0.00008656   0.00000333          5.86    -12.73      0.49
   0.00000333   0.00000333   0.00000316          0.49      0.49      0.46


     Entering Dynamics:    iteration =     5

     <vel(dt)|acc(dt)> =   0.78259118

ATOMIC_POSITIONS (angstrom)
Si       0.011099104   0.011099104   4.371060328
Si       0.010739335   2.730360930   7.131574955
Si       2.730360930   0.010739335   7.131574955
Si       2.730191738   2.730191738   4.382431213
Si       1.367760346   1.367760346   5.717723438
Si       1.355072174   4.105181044   8.472170315
Si       4.105181044   1.355072174   8.472170315
Si       4.092622078   4.092622078   5.717444956



     Writing output data file Si.Fd-3m_1ML.save/
     NEW-OLD atomic charge density approx. for the potential

     negative rho (up, down):  7.576E-07 0.000E+00

     total cpu time spent up to now is     2767.6 secs

     Self-consistent Calculation

     iteration #  1     ecut=    45.00 Ry     beta= 0.50
     CG style diagonalization
     ethr =  1.00E-06,  avg # of iterations =  3.3

     Threshold (ethr) on eigenvalues was too large:
     Diagonalizing with lowered threshold

     CG style diagonalization
     c_bands:  3 eigenvalues not converged
     c_bands:  4 eigenvalues not converged
     c_bands:  1 eigenvalues not converged
     ethr =  6.73E-09,  avg # of iterations = 12.2

     negative rho (up, down):  7.345E-07 0.000E+00

     total cpu time spent up to now is     3021.3 secs

     total energy              =    -373.28067382 Ry
     Harris-Foulkes estimate   =    -373.28075050 Ry
     estimated scf accuracy    <       0.00001593 Ry

     iteration #  2     ecut=    45.00 Ry     beta= 0.50
     CG style diagonalization
     ethr =  4.98E-08,  avg # of iterations =  3.0

     negative rho (up, down):  7.180E-07 0.000E+00

     total cpu time spent up to now is     3075.6 secs

     total energy              =    -373.28067336 Ry
     Harris-Foulkes estimate   =    -373.28067491 Ry
     estimated scf accuracy    <       0.00000424 Ry

     iteration #  3     ecut=    45.00 Ry     beta= 0.50
     CG style diagonalization
     ethr =  1.32E-08,  avg # of iterations =  3.1

     negative rho (up, down):  7.232E-07 0.000E+00

     total cpu time spent up to now is     3136.0 secs

     total energy              =    -373.28067396 Ry
     Harris-Foulkes estimate   =    -373.28067400 Ry
     estimated scf accuracy    <       0.00000023 Ry

     iteration #  4     ecut=    45.00 Ry     beta= 0.50
     CG style diagonalization
     ethr =  7.06E-10,  avg # of iterations =  4.2

     negative rho (up, down):  7.266E-07 0.000E+00

     total cpu time spent up to now is     3209.6 secs

     total energy              =    -373.28067412 Ry
     Harris-Foulkes estimate   =    -373.28067412 Ry
     estimated scf accuracy    <       0.00000003 Ry

     iteration #  5     ecut=    45.00 Ry     beta= 0.50
     CG style diagonalization
     ethr =  1.04E-10,  avg # of iterations =  3.2

     negative rho (up, down):  7.334E-07 0.000E+00

     total cpu time spent up to now is     3263.7 secs

     total energy              =    -373.28067412 Ry
     Harris-Foulkes estimate   =    -373.28067412 Ry
     estimated scf accuracy    <       0.00000001 Ry

     iteration #  6     ecut=    45.00 Ry     beta= 0.50
     CG style diagonalization
     ethr =  4.01E-11,  avg # of iterations =  3.2

     negative rho (up, down):  7.497E-07 0.000E+00

     total cpu time spent up to now is     3308.3 secs

     End of self-consistent calculation

          k = 0.0000 0.0000 0.0000 ( 14365 PWs)   bands (ev):

   -11.7492  -9.6114  -8.3126  -8.3123  -7.5184  -7.5182  -6.3009  -3.8167
    -3.8160  -2.8457  -2.6034  -2.5252  -2.1366  -2.1365  -1.4778  -0.7775
    -0.7757  -0.4990   0.4231   0.9125   1.0555   1.8183   1.8197   2.0767

          k = 0.0000 0.1250 0.0000 ( 14388 PWs)   bands (ev):

   -11.6855  -9.5646  -8.9183  -8.1886  -7.4320  -7.0977  -6.3079  -4.0232
    -3.6980  -3.0472  -3.0331  -2.3892  -1.9833  -1.9558  -1.5967  -1.0037
    -0.6497  -0.5146   0.3362   1.2669   1.3541   1.7566   2.1905   2.3971

          k = 0.0000 0.2500 0.0000 ( 14390 PWs)   bands (ev):

   -11.4957  -9.5958  -9.4281  -8.3838  -7.2019  -6.3857  -6.3468  -4.1563
    -3.6982  -3.6539  -3.3909  -2.7412  -1.6377  -1.5809  -1.5628  -1.1181
    -0.7863  -0.6188   0.3127   1.5743   2.0348   2.1039   2.1562   2.9541

          k = 0.0000 0.3750 0.0000 ( 14358 PWs)   bands (ev):

   -11.1832 -10.2192  -9.2145  -8.6554  -6.9311  -6.4595  -5.6552  -4.2985
    -4.0940  -3.7450  -3.6633  -3.3087  -1.5620  -1.3837  -1.1716  -1.1490
    -0.7665  -0.5014   0.1181   0.8439   2.7759   2.7797   3.2795   3.3739

          k = 0.0000-0.5000 0.0000 ( 14338 PWs)   bands (ev):

   -10.7581 -10.7503  -8.9480  -8.9439  -6.6677  -6.6631  -4.9773  -4.9402
    -3.8128  -3.7885  -3.7700  -3.7587  -1.4614  -1.4165  -1.1973  -1.1737
    -0.2870  -0.2774   0.0576   0.1069   3.1376   3.1405   3.6732   3.6847

          k = 0.1250 0.1250 0.0000 ( 14393 PWs)   bands (ev):

   -11.6189  -9.4674  -8.9078  -8.9075  -6.8050  -6.8049  -6.4254  -3.9941
    -3.9932  -3.4755  -3.0614  -2.5116  -1.7686  -1.6787  -1.6775  -1.0642
    -1.0629  -0.4348   0.5484   1.1626   1.8967   2.3320   2.3473   2.3507

          k = 0.1250 0.2500 0.0000 ( 14395 PWs)   bands (ev):

   -11.4280  -9.5857  -9.2775  -8.9720  -6.6218  -6.5536  -6.1766  -4.0980
    -3.9113  -3.8058  -3.7555  -2.6777  -1.6206  -1.4805  -1.3018  -1.1594
    -1.0771  -0.6735   0.5702   1.6054   1.9852   2.5434   2.7154   3.0554

          k = 0.1250 0.3750 0.0000 ( 14386 PWs)   bands (ev):

   -11.1171 -10.1964  -9.0803  -9.0002  -6.9151  -6.3477  -5.6946  -4.5129
    -3.9081  -3.8499  -3.7437  -3.0954  -1.7687  -1.3550  -1.1270  -1.0627
    -0.8178  -0.5815   0.3481   1.2711   2.5369   2.8150   3.1727   3.2943

          k = 0.1250-0.5000 0.0000 ( 14382 PWs)   bands (ev):

   -10.7195 -10.6952  -9.2229  -8.6491  -7.2599  -6.2086  -5.3130  -5.2566
    -3.8009  -3.5103  -3.4845  -3.3044  -1.8353  -1.4629  -1.2383  -1.1488
    -0.2664  -0.0804  -0.0009   0.4801   3.1233   3.1521   3.5440   3.5776

          k = 0.2500 0.2500 0.0000 ( 14420 PWs)   bands (ev):

   -11.2418  -9.5586  -9.5583  -9.0399  -7.0071  -6.0740  -6.0738  -4.4863
    -3.9757  -3.8354  -3.8345  -2.2610  -1.5810  -1.5448  -1.5425  -0.9907
    -0.8453  -0.8450   0.9129   1.4842   1.9970   2.6192   3.1595   3.1613

          k = 0.2500 0.3750 0.0000 ( 14427 PWs)   bands (ev):

   -10.9458 -10.1079  -9.5245  -8.7146  -7.4464  -6.0146  -5.8496  -5.2186
    -3.9030  -3.4503  -3.3592  -2.3843  -1.9112  -1.4985  -1.4481  -1.2995
    -0.6036  -0.3425   0.9669   1.5406   1.9446   2.8551   3.2500   3.3258

          k = 0.2500-0.5000 0.0000 ( 14440 PWs)   bands (ev):

   -10.5904 -10.5596  -9.5058  -8.3120  -7.8509  -5.9836  -5.8976  -5.6822
    -3.6573  -3.0048  -2.7673  -2.6736  -2.1089  -1.9161  -1.4249  -1.0834
    -0.3912   0.0695   0.7500   0.8590   2.6992   2.7276   3.1723   3.1818

          k = 0.3750 0.3750 0.0000 ( 14444 PWs)   bands (ev):

   -10.6887  -9.9685  -9.9683  -8.3546  -7.9471  -5.9385  -5.9310  -5.8979
    -3.7078  -2.8797  -2.8792  -1.9614  -1.9502  -1.8541  -1.8526  -1.1666
    -0.2506  -0.2505   1.4542   1.5273   1.7167   3.0265   3.0276   3.0617

          k = 0.3750-0.5000 0.0000 ( 14438 PWs)   bands (ev):

   -10.3967 -10.3787  -9.8056  -8.3108  -7.9465  -6.4888  -5.9412  -5.8939
    -3.3854  -2.5490  -2.4284  -2.2602  -2.0852  -2.0446  -1.6800  -0.9903
    -0.2755   0.0505   1.1657   1.4980   1.9795   2.1394   2.3767   2.9059

          k =-0.5000-0.5000 0.0000 ( 14440 PWs)   bands (ev):

   -10.3145 -10.1072 -10.1070  -8.4952  -7.7217  -6.7941  -5.9527  -5.9526
    -3.1288  -2.7722  -2.3050  -2.3043  -1.8216  -1.8036  -1.7722  -0.9261
    -0.0866  -0.0861   1.2873   1.6562   1.8291   1.9697   1.9709   2.8059

          k =-0.1250 0.1250 0.0000 ( 14393 PWs)   bands (ev):

   -11.6264  -9.5723  -9.1375  -7.8073  -7.4662  -7.4291  -6.2279  -4.0283
    -3.6723  -3.4323  -2.7583  -2.1139  -2.1061  -1.9474  -1.4659  -0.8699
    -0.8192  -0.3682   0.0809   1.3326   1.5303   1.5669   1.7143   2.4700

          k =-0.1250 0.2500 0.0000 ( 14395 PWs)   bands (ev):

   -11.4425  -9.6228  -9.5020  -7.8334  -7.8041  -6.7225  -6.1706  -4.3130
    -3.9751  -3.3997  -2.8636  -2.1711  -2.0565  -1.5999  -1.4969  -1.2653
    -0.6365  -0.2483   0.1752   1.0189   1.6333   1.7855   2.1670   2.8439

          k =-0.1250 0.3750 0.0000 ( 14386 PWs)   bands (ev):

   -11.1378 -10.1828  -9.3751  -8.2485  -7.5815  -6.1537  -5.9956  -4.8660
    -3.8046  -3.5834  -3.1757  -2.6676  -1.8144  -1.6488  -1.3946  -1.1947
    -0.3495  -0.0872   0.2117   0.3584   2.3329   2.4768   3.0565   3.2178

          k =-0.2500 0.2500 0.0000 ( 14420 PWs)   bands (ev):

   -11.2697  -9.7795  -9.5193  -8.1495  -7.5269  -6.9279  -6.0574  -4.9287
    -3.6250  -3.1890  -2.5122  -2.3851  -1.8447  -1.7647  -1.4639  -1.3867
    -0.0665   0.0149   0.1243   0.4333   1.5822   1.8740   2.0031   2.7676

          k =-0.2500 0.3750 0.0000 ( 14427 PWs)   bands (ev):

   -10.9824 -10.1330  -9.5099  -8.1280  -7.8636  -6.5031  -5.9945  -5.3934
    -3.3362  -3.2028  -2.5962  -2.2981  -2.0833  -2.0527  -1.4418  -1.1171
    -0.0631   0.2168   0.3102   0.4104   1.8867   2.3954   2.4450   2.7892

          k =-0.3750 0.3750 0.0000 ( 14444 PWs)   bands (ev):

   -10.7246 -10.1793  -9.6487  -8.4034  -7.6636  -6.7960  -5.9407  -5.7385
    -3.1284  -2.6676  -2.5662  -2.3813  -2.1608  -1.8556  -1.5559  -0.9995
    -0.2694   0.1726   0.7184   1.1166   1.7503   2.1129   2.4083   2.7504

     the Fermi energy is    -0.9343 ev

!    total energy              =    -373.28067412 Ry
     Harris-Foulkes estimate   =    -373.28067412 Ry
     estimated scf accuracy    <          5.9E-10 Ry

     convergence has been achieved in   6 iterations

     negative rho (up, down):  7.497E-07 0.000E+00

     Forces acting on atoms (cartesian axes, Ry/au):

     atom    1 type  1   force =    -0.00037872   -0.00037872   -0.00046530
     atom    2 type  1   force =    -0.00025477   -0.00007300    0.00022962
     atom    3 type  1   force =    -0.00007300   -0.00025477    0.00022962
     atom    4 type  1   force =     0.00001348    0.00001348   -0.00030341
     atom    5 type  1   force =    -0.00031212   -0.00031212   -0.00016902
     atom    6 type  1   force =    -0.00222130    0.00255127    0.00038338
     atom    7 type  1   force =     0.00255127   -0.00222130    0.00038338
     atom    8 type  1   force =     0.00067516    0.00067516   -0.00028826

     Total force =     0.005024     Total SCF correction =     0.000021


     Computing stress (Cartesian axis) and pressure


     negative rho (up, down):  7.497E-07 0.000E+00
          total   stress  (Ry/bohr**3)                   (kbar)     P=   -8.42
  -0.00008696   0.00003976   0.00000063        -12.79      5.85      0.09
   0.00003976  -0.00008696   0.00000063          5.85    -12.79      0.09
   0.00000063   0.00000063   0.00000216          0.09      0.09      0.32


     Entering Dynamics:    iteration =     6

     <vel(dt)|acc(dt)> =   0.96779684

ATOMIC_POSITIONS (angstrom)
Si       0.007994337   0.007994337   4.367674811
Si       0.009208738   2.726933160   7.133255667
Si       2.726933160   0.009208738   7.133255667
Si       2.728174578   2.728174578   4.379067215
Si       1.367656747   1.367656747   5.717267536
Si       1.346423000   4.118844682   8.475568709
Si       4.118844682   1.346423000   8.475568709
Si       4.097791507   4.097791507   5.714492162



     Writing output data file Si.Fd-3m_1ML.save/
     NEW-OLD atomic charge density approx. for the potential

     negative rho (up, down):  7.815E-07 0.000E+00

     total cpu time spent up to now is     3316.6 secs

     Self-consistent Calculation

     iteration #  1     ecut=    45.00 Ry     beta= 0.50
     CG style diagonalization
     c_bands:  2 eigenvalues not converged
     c_bands:  1 eigenvalues not converged
     c_bands:  1 eigenvalues not converged
     c_bands:  1 eigenvalues not converged
     ethr =  1.00E-06,  avg # of iterations =  8.3

     negative rho (up, down):  6.508E-07 0.000E+00

     total cpu time spent up to now is     3450.1 secs

     total energy              =    -373.28087506 Ry
     Harris-Foulkes estimate   =    -373.28122117 Ry
     estimated scf accuracy    <       0.00013714 Ry

     iteration #  2     ecut=    45.00 Ry     beta= 0.50
     CG style diagonalization
     ethr =  4.29E-07,  avg # of iterations =  3.1

     negative rho (up, down):  5.571E-07 0.000E+00

     total cpu time spent up to now is     3514.7 secs

     total energy              =    -373.28087081 Ry
     Harris-Foulkes estimate   =    -373.28089693 Ry
     estimated scf accuracy    <       0.00005860 Ry

     iteration #  3     ecut=    45.00 Ry     beta= 0.50
     CG style diagonalization
     ethr =  1.83E-07,  avg # of iterations =  3.6

     negative rho (up, down):  6.104E-07 0.000E+00

     total cpu time spent up to now is     3575.1 secs

     total energy              =    -373.28088590 Ry
     Harris-Foulkes estimate   =    -373.28089090 Ry
     estimated scf accuracy    <       0.00001204 Ry

     iteration #  4     ecut=    45.00 Ry     beta= 0.50
     CG style diagonalization
     ethr =  3.76E-08,  avg # of iterations =  3.3

     negative rho (up, down):  6.199E-07 0.000E+00

     total cpu time spent up to now is     3645.9 secs

     total energy              =    -373.28088916 Ry
     Harris-Foulkes estimate   =    -373.28088921 Ry
     estimated scf accuracy    <       0.00000142 Ry

     iteration #  5     ecut=    45.00 Ry     beta= 0.50
     CG style diagonalization
     ethr =  4.44E-09,  avg # of iterations =  3.3

     negative rho (up, down):  6.313E-07 0.000E+00

     total cpu time spent up to now is     3711.3 secs

     total energy              =    -373.28088923 Ry
     Harris-Foulkes estimate   =    -373.28088934 Ry
     estimated scf accuracy    <       0.00000048 Ry

     iteration #  6     ecut=    45.00 Ry     beta= 0.50
     CG style diagonalization
     ethr =  1.49E-09,  avg # of iterations =  3.2

     negative rho (up, down):  6.591E-07 0.000E+00

     total cpu time spent up to now is     3764.0 secs

     total energy              =    -373.28088931 Ry
     Harris-Foulkes estimate   =    -373.28088932 Ry
     estimated scf accuracy    <       0.00000005 Ry

     iteration #  7     ecut=    45.00 Ry     beta= 0.50
     CG style diagonalization
     ethr =  1.52E-10,  avg # of iterations =  3.8

     negative rho (up, down):  7.099E-07 0.000E+00

     total cpu time spent up to now is     3822.0 secs

     End of self-consistent calculation

          k = 0.0000 0.0000 0.0000 ( 14365 PWs)   bands (ev):

   -11.7368  -9.6081  -8.3014  -8.3014  -7.5112  -7.5106  -6.3018  -3.8118
    -3.8096  -2.8325  -2.5873  -2.5331  -2.1301  -2.1300  -1.4710  -0.7817
    -0.7767  -0.4962   0.4270   0.9259   1.0615   1.8122   1.8145   2.0791

          k = 0.0000 0.1250 0.0000 ( 14388 PWs)   bands (ev):

   -11.6732  -9.5612  -8.9069  -8.1797  -7.4236  -7.0901  -6.3083  -4.0164
    -3.6932  -3.0400  -3.0188  -2.3871  -1.9775  -1.9510  -1.5915  -1.0060
    -0.6537  -0.5115   0.3407   1.2803   1.3605   1.7517   2.1932   2.2611

          k = 0.0000 0.2500 0.0000 ( 14390 PWs)   bands (ev):

   -11.4835  -9.5842  -9.4245  -8.3767  -7.1936  -6.3794  -6.3446  -4.1484
    -3.6975  -3.6403  -3.3793  -2.7354  -1.6358  -1.5865  -1.5524  -1.1199
    -0.7856  -0.6181   0.3139   1.5766   2.0418   2.1006   2.1715   2.9427

          k = 0.0000 0.3750 0.0000 ( 14358 PWs)   bands (ev):

   -11.1711 -10.2073  -9.2106  -8.6496  -6.9237  -6.4564  -5.6478  -4.2898
    -4.0854  -3.7398  -3.6534  -3.3005  -1.5637  -1.3865  -1.1780  -1.1391
    -0.7644  -0.5004   0.1181   0.8475   2.7729   2.7815   3.2945   3.3711

          k = 0.0000-0.5000 0.0000 ( 14338 PWs)   bands (ev):

   -10.7526 -10.7317  -8.9490  -8.9335  -6.6640  -6.6555  -4.9789  -4.9223
    -3.8170  -3.7768  -3.7587  -3.7459  -1.4774  -1.4007  -1.2068  -1.1671
    -0.2885  -0.2770   0.0437   0.1298   3.1326   3.1384   3.6679   3.6876

          k = 0.1250 0.1250 0.0000 ( 14393 PWs)   bands (ev):

   -11.6066  -9.4641  -8.8977  -8.8974  -6.7972  -6.7968  -6.4247  -3.9892
    -3.9861  -3.4639  -3.0617  -2.4953  -1.7715  -1.6735  -1.6698  -1.0674
    -1.0641  -0.4354   0.5523   1.1760   1.9060   2.3348   2.3374   2.3466

          k = 0.1250 0.2500 0.0000 ( 14395 PWs)   bands (ev):

   -11.4156  -9.5748  -9.2742  -8.9633  -6.6193  -6.5459  -6.1686  -4.0918
    -3.9077  -3.7966  -3.7495  -2.6626  -1.6230  -1.4819  -1.2976  -1.1567
    -1.0796  -0.6731   0.5734   1.6183   1.9900   2.5460   2.7077   3.0464

[...]

   -11.6635  -9.7241  -9.2367  -8.7640  -7.1775  -6.3951  -5.9419  -4.5311
    -4.0796  -3.7555  -3.2705  -2.7460  -2.3476  -1.4882  -1.2604  -0.8823
    -0.4744  -0.3234   1.0421   1.5673   1.7378   2.4617   2.9435   3.2408

          k = 0.1250 0.3750 0.0000 ( 14386 PWs)   bands (ev):

   -11.3729 -10.2351  -9.0816  -8.8537  -7.4282  -6.2118  -5.6502  -4.5008
    -4.0783  -3.8494  -3.4044  -2.9102  -2.5322  -1.3868  -1.0151  -0.6787
    -0.5599  -0.1288   0.7700   1.8832   2.0896   2.6518   3.0385   3.3061

          k = 0.1250-0.5000 0.0000 ( 14382 PWs)   bands (ev):

   -11.1374 -10.5750  -9.0866  -8.6945  -7.6068  -6.1170  -5.7164  -4.6168
    -4.0457  -3.8298  -3.1341  -2.8551  -2.7322  -1.2791  -1.0326  -0.7333
    -0.4758   0.1711   0.5136   1.5958   2.2547   2.8110   3.2510   3.5307

          k = 0.2500 0.2500 0.0000 ( 14420 PWs)   bands (ev):

   -11.4772  -9.6538  -9.4334  -9.0324  -7.5525  -5.9630  -5.6836  -4.7708
    -4.1097  -3.7443  -3.4607  -2.6849  -2.0704  -1.4353  -1.0346  -1.0170
    -0.6032  -0.2229   1.3881   1.4651   1.9632   2.5493   3.0622   3.2763

          k = 0.2500 0.3750 0.0000 ( 14427 PWs)   bands (ev):

   -11.1878 -10.1062  -9.3619  -8.9678  -7.8533  -5.9290  -5.5713  -5.0139
    -4.0531  -3.5852  -3.2302  -2.6425  -2.1037  -1.3614  -1.1469  -0.8943
    -0.6321   0.1834   1.3384   1.6582   2.2352   2.5771   2.9125   3.3511

          k = 0.2500-0.5000 0.0000 ( 14440 PWs)   bands (ev):

   -10.9428 -10.4622  -9.2751  -8.8950  -7.9286  -6.1127  -5.6720  -5.1092
    -3.8900  -3.5274  -2.8845  -2.5026  -2.0981  -1.4943  -1.2502  -0.9743
    -0.3339   0.4631   1.0238   1.8128   2.0643   2.5391   3.0058   3.3009

          k = 0.3750 0.3750 0.0000 ( 14444 PWs)   bands (ev):

   -10.9011  -9.9652  -9.8307  -9.0134  -8.0034  -6.1710  -5.3897  -5.3872
    -4.0553  -3.1052  -2.9841  -2.3480  -1.7872  -1.5019  -1.1864  -1.1271
    -0.2973   0.4569   1.3192   1.6740   2.4584   2.6019   2.8733   3.0473

          k = 0.3750-0.5000 0.0000 ( 14438 PWs)   bands (ev):

   -10.6332 -10.3181  -9.6343  -9.2190  -7.8667  -6.4786  -5.5447  -5.3635
    -3.9385  -2.9074  -2.8196  -2.0049  -1.7512  -1.6674  -1.1944  -1.1250
    -0.1021   0.6116   1.3890   1.5662   1.9504   2.3538   2.7926   3.1379

          k =-0.5000-0.5000 0.0000 ( 14440 PWs)   bands (ev):

   -10.3370 -10.2594  -9.9656  -9.3452  -7.7813  -6.6493  -5.5818  -5.3882
    -3.9505  -2.7874  -2.5832  -1.9798  -1.7835  -1.5325  -1.1637  -1.0072
     0.0231   0.6644   1.2598   1.4312   1.9117   2.1657   3.0572   3.3109

          k =-0.1250 0.1250 0.0000 ( 14393 PWs)   bands (ev):

   -11.8519  -9.6784  -9.1266  -7.7832  -7.3339  -7.2382  -6.3215  -4.4906
    -4.1774  -3.0928  -2.9099  -2.5453  -2.2265  -1.6353  -1.3462  -1.1828
    -0.4864   0.0502   0.6280   1.3200   1.4921   1.8056   2.4742   2.8047

          k =-0.1250 0.2500 0.0000 ( 14395 PWs)   bands (ev):

   -11.6651  -9.7469  -9.4449  -8.0050  -7.6025  -6.6814  -6.1036  -4.5078
    -4.3397  -3.1407  -2.9960  -2.6411  -2.1332  -1.7825  -1.3043  -0.8897
    -0.4485   0.0162   0.5577   1.4233   1.8281   2.0934   2.5429   3.2067

          k =-0.1250 0.3750 0.0000 ( 14386 PWs)   bands (ev):

   -11.3740 -10.2495  -9.3025  -8.3038  -7.7050  -6.2499  -5.9022  -4.6368
    -4.2511  -3.4969  -2.9211  -2.8830  -2.3226  -1.6104  -1.2258  -0.5966
    -0.4493  -0.0122   0.5797   1.5991   1.8898   2.6401   3.0666   3.3005

          k =-0.2500 0.2500 0.0000 ( 14420 PWs)   bands (ev):

   -11.4792  -9.7883  -9.5449  -8.4740  -7.4828  -6.7389  -5.8854  -4.8009
    -4.1481  -3.2757  -2.7847  -2.3002  -2.2908  -1.5693  -1.2397  -0.8362
    -0.5058   0.0765   0.6631   1.6221   1.6771   1.9431   2.5770   3.1035

          k =-0.2500 0.3750 0.0000 ( 14427 PWs)   bands (ev):

   -11.1869 -10.1748  -9.3956  -8.7407  -7.7376  -6.4513  -5.7411  -5.0608
    -3.8009  -3.5269  -2.8520  -2.2846  -1.9463  -1.7067  -1.2425  -0.9315
    -0.3297   0.2941   0.8203   1.6612   1.9093   2.2436   2.7635   3.0183

          k =-0.3750 0.3750 0.0000 ( 14444 PWs)   bands (ev):

   -10.8890 -10.1971  -9.4406  -9.2245  -7.7045  -6.6337  -5.5964  -5.3111
    -3.7567  -3.1906  -2.7596  -2.1227  -1.7850  -1.3931  -1.2720  -1.1686
    -0.2160   0.5264   1.1141   1.6843   2.0450   2.0746   2.6221   2.8668

     the Fermi energy is    -0.6063 ev

!    total energy              =    -373.35921530 Ry
     Harris-Foulkes estimate   =    -373.35921531 Ry
     estimated scf accuracy    <          8.6E-09 Ry

     convergence has been achieved in   6 iterations

     negative rho (up, down):  1.219E-06 0.000E+00

     Forces acting on atoms (cartesian axes, Ry/au):

     atom    1 type  1   force =    -0.00044427   -0.00044427   -0.00164111
     atom    2 type  1   force =    -0.00096342    0.00024330   -0.00001329
     atom    3 type  1   force =     0.00024330   -0.00096342   -0.00001329
     atom    4 type  1   force =    -0.00003894   -0.00003894    0.00245345
     atom    5 type  1   force =    -0.00056631   -0.00056631    0.00016600
     atom    6 type  1   force =     0.00075964    0.00052586    0.00005137
     atom    7 type  1   force =     0.00052586    0.00075964    0.00005137
     atom    8 type  1   force =     0.00048415    0.00048415   -0.00105450

     Total force =     0.003879     Total SCF correction =     0.000121


     Computing stress (Cartesian axis) and pressure


     negative rho (up, down):  1.219E-06 0.000E+00
          total   stress  (Ry/bohr**3)                   (kbar)     P=   -6.60
  -0.00006692   0.00006433   0.00000192         -9.84      9.46      0.28
   0.00006433  -0.00006692   0.00000192          9.46     -9.84      0.28
   0.00000192   0.00000192  -0.00000076          0.28      0.28     -0.11


     Entering Dynamics:    iteration =    26

     <vel(dt)|acc(dt)> =   0.53234313

ATOMIC_POSITIONS (angstrom)
Si       0.000466930   0.000466930   4.301816907
Si       0.018125349   2.738386914   7.192953363
Si       2.738386914   0.018125349   7.192953363
Si       2.722751641   2.722751641   4.532565084
Si       1.321343756   1.321343756   5.783446733
Si       0.856227400   4.624413260   8.303241251
Si       4.624413260   0.856227400   8.303241251
Si       4.121311498   4.121311498   5.785932526



     Writing output data file Si.Fd-3m_1ML.save/
     NEW-OLD atomic charge density approx. for the potential

     negative rho (up, down):  1.268E-06 0.000E+00

     total cpu time spent up to now is    17777.5 secs

     Self-consistent Calculation

     iteration #  1     ecut=    45.00 Ry     beta= 0.50
     CG style diagonalization
     ethr =  1.00E-06,  avg # of iterations =  3.3

     Threshold (ethr) on eigenvalues was too large:
     Diagonalizing with lowered threshold

     CG style diagonalization
     c_bands:  1 eigenvalues not converged
     c_bands:  1 eigenvalues not converged
     c_bands:  1 eigenvalues not converged
     ethr =  1.77E-08,  avg # of iterations =  8.4

     negative rho (up, down):  1.281E-06 0.000E+00

     total cpu time spent up to now is    17981.4 secs

     total energy              =    -373.35925408 Ry
     Harris-Foulkes estimate   =    -373.35921636 Ry
     estimated scf accuracy    <       0.00001145 Ry

     iteration #  2     ecut=    45.00 Ry     beta= 0.50
     CG style diagonalization
     ethr =  3.58E-08,  avg # of iterations =  3.0

     negative rho (up, down):  1.301E-06 0.000E+00

     total cpu time spent up to now is    18042.8 secs

     total energy              =    -373.35925368 Ry
     Harris-Foulkes estimate   =    -373.35925478 Ry
     estimated scf accuracy    <       0.00000329 Ry

     iteration #  3     ecut=    45.00 Ry     beta= 0.50
     CG style diagonalization
     ethr =  1.03E-08,  avg # of iterations =  3.3

     negative rho (up, down):  1.299E-06 0.000E+00

     total cpu time spent up to now is    18105.2 secs

     total energy              =    -373.35925411 Ry
     Harris-Foulkes estimate   =    -373.35925414 Ry
     estimated scf accuracy    <       0.00000021 Ry

     iteration #  4     ecut=    45.00 Ry     beta= 0.50
     CG style diagonalization
     ethr =  6.42E-10,  avg # of iterations =  4.0

     negative rho (up, down):  1.280E-06 0.000E+00

     total cpu time spent up to now is    18183.8 secs

     total energy              =    -373.35925422 Ry
     Harris-Foulkes estimate   =    -373.35925422 Ry
     estimated scf accuracy    <       0.00000003 Ry

     iteration #  5     ecut=    45.00 Ry     beta= 0.50
     CG style diagonalization
     ethr =  1.06E-10,  avg # of iterations =  3.3

     negative rho (up, down):  1.212E-06 0.000E+00

     total cpu time spent up to now is    18226.4 secs

     End of self-consistent calculation

          k = 0.0000 0.0000 0.0000 ( 14365 PWs)   bands (ev):

   -11.9744  -9.7356  -8.2920  -8.2200  -7.2750  -7.2358  -6.6328  -4.4139
    -4.0682  -3.3565  -2.6070  -2.4368  -2.2021  -1.7426  -1.3832  -1.1540
    -0.4739  -0.1848   0.8159   1.0409   1.3496   1.5886   2.3523   2.3922

          k = 0.0000 0.1250 0.0000 ( 14388 PWs)   bands (ev):

   -11.9107  -9.7030  -8.8517  -8.0361  -7.2886  -6.9421  -6.5493  -4.5151
    -3.9886  -3.3727  -2.7664  -2.5811  -2.2290  -1.6000  -1.4421  -1.2301
    -0.3634  -0.1703   0.8942   1.1396   1.3552   1.8299   2.5000   2.6725

          k = 0.0000 0.2500 0.0000 ( 14390 PWs)   bands (ev):

   -11.7232  -9.7765  -9.3170  -8.1814  -7.2281  -6.7307  -6.1073  -4.5551
    -4.0335  -3.4881  -3.0571  -2.7836  -2.3881  -1.6350  -1.3088  -1.0084
    -0.2697  -0.1740   0.6435   1.4627   1.9663   2.3288   2.5645   3.1578

          k = 0.0000 0.3750 0.0000 ( 14358 PWs)   bands (ev):

   -11.4321 -10.2803  -9.1987  -8.4680  -7.1641  -6.6335  -5.6586  -4.4116
    -4.1670  -3.7276  -3.2729  -3.0289  -2.6592  -1.4015  -1.1468  -0.5637
    -0.3058  -0.2446   0.4031   1.6988   2.0122   2.9786   3.1473   3.3259

          k = 0.0000-0.5000 0.0000 ( 14338 PWs)   bands (ev):

   -11.1978 -10.6143  -9.0210  -8.6858  -7.1374  -6.5884  -5.5047  -4.2454
    -4.1947  -3.9119  -3.3373  -3.1952  -2.7931  -1.2407  -0.8520  -0.6985
    -0.2978  -0.0403   0.1684   1.5322   2.2900   2.8768   3.3437   3.4114

          k = 0.1250 0.1250 0.0000 ( 14393 PWs)   bands (ev):

   -11.8466  -9.6535  -8.8088  -8.7158  -6.9048  -6.6192  -6.5633  -4.5657
    -3.8951  -3.6220  -3.0681  -2.4808  -2.3365  -1.5420  -1.2683  -1.2682
    -0.4328  -0.2580   1.1559   1.1854   1.3215   2.2003   2.7939   2.8590

          k = 0.1250 0.2500 0.0000 ( 14395 PWs)   bands (ev):

   -11.6591  -9.7244  -9.2348  -8.7629  -7.1753  -6.3935  -5.9406  -4.5287
    -4.0804  -3.7540  -3.2695  -2.7445  -2.3441  -1.4879  -1.2621  -0.8820
    -0.4744  -0.3211   1.0410   1.5655   1.7416   2.4619   2.9422   3.2375

          k = 0.1250 0.3750 0.0000 ( 14386 PWs)   bands (ev):

   -11.3682 -10.2332  -9.0814  -8.8537  -7.4257  -6.2094  -5.6500  -4.4986
    -4.0773  -3.8473  -3.4049  -2.9083  -2.5309  -1.3884  -1.0147  -0.6784
    -0.5571  -0.1286   0.7695   1.8799   2.0905   2.6576   3.0365   3.3061

          k = 0.1250-0.5000 0.0000 ( 14382 PWs)   bands (ev):

   -11.1321 -10.5733  -9.0869  -8.6947  -7.6044  -6.1141  -5.7177  -4.6137
    -4.0417  -3.8289  -3.1358  -2.8533  -2.7313  -1.2819  -1.0309  -0.7333
    -0.4734   0.1724   0.5125   1.5960   2.2544   2.8082   3.2481   3.5304

          k = 0.2500 0.2500 0.0000 ( 14420 PWs)   bands (ev):

   -11.4727  -9.6553  -9.4289  -9.0320  -7.5509  -5.9637  -5.6804  -4.7692
    -4.1083  -3.7417  -3.4616  -2.6855  -2.0663  -1.4384  -1.0321  -1.0166
    -0.6008  -0.2226   1.3888   1.4644   1.9623   2.5500   3.0611   3.2765

          k = 0.2500 0.3750 0.0000 ( 14427 PWs)   bands (ev):

   -11.1830 -10.1045  -9.3603  -8.9673  -7.8523  -5.9300  -5.5692  -5.0120
    -4.0505  -3.5819  -3.2315  -2.6438  -2.1006  -1.3642  -1.1466  -0.8937
    -0.6272   0.1835   1.3381   1.6584   2.2333   2.5809   2.9114   3.3494

          k = 0.2500-0.5000 0.0000 ( 14440 PWs)   bands (ev):

   -10.9377 -10.4602  -9.2755  -8.8923  -7.9290  -6.1145  -5.6703  -5.1060
    -3.8877  -3.5232  -2.8844  -2.5045  -2.0957  -1.4942  -1.2522  -0.9746
    -0.3298   0.4637   1.0235   1.8124   2.0648   2.5373   3.0021   3.3053

          k = 0.3750 0.3750 0.0000 ( 14444 PWs)   bands (ev):

   -10.8963  -9.9651  -9.8262  -9.0127  -8.0040  -6.1727  -5.3883  -5.3841
    -4.0537  -3.1003  -2.9848  -2.3503  -1.7856  -1.5027  -1.1838  -1.1295
    -0.2924   0.4567   1.3205   1.6745   2.4611   2.5973   2.8724   3.0459

          k = 0.3750-0.5000 0.0000 ( 14438 PWs)   bands (ev):

   -10.6284 -10.3153  -9.6316  -9.2185  -7.8681  -6.4806  -5.5415  -5.3617
    -3.9374  -2.9030  -2.8189  -2.0033  -1.7538  -1.6666  -1.1969  -1.1237
    -0.0974   0.6117   1.3906   1.5675   1.9498   2.3495   2.7921   3.1386

          k =-0.5000-0.5000 0.0000 ( 14440 PWs)   bands (ev):

   -10.3338 -10.2551  -9.9612  -9.3465  -7.7828  -6.6515  -5.5778  -5.3873
    -3.9499  -2.7887  -2.5768  -1.9754  -1.7848  -1.5361  -1.1696  -1.0022
     0.0280   0.6644   1.2617   1.4353   1.9085   2.1620   3.0571   3.3108

          k =-0.1250 0.1250 0.0000 ( 14393 PWs)   bands (ev):

   -11.8477  -9.6803  -9.1229  -7.7798  -7.3327  -7.2394  -6.3203  -4.4879
    -4.1746  -3.0927  -2.9063  -2.5426  -2.2220  -1.6377  -1.3480  -1.1848
    -0.4842   0.0495   0.6277   1.3167   1.4951   1.8040   2.4724   2.7998

          k =-0.1250 0.2500 0.0000 ( 14395 PWs)   bands (ev):

   -11.6608  -9.7462  -9.4437  -8.0013  -7.6037  -6.6810  -6.1032  -4.5040
    -4.3355  -3.1395  -2.9948  -2.6391  -2.1292  -1.7855  -1.3062  -0.8905
    -0.4469   0.0165   0.5570   1.4212   1.8278   2.0921   2.5439   3.2007

          k =-0.1250 0.3750 0.0000 ( 14386 PWs)   bands (ev):

   -11.3695 -10.2471  -9.3031  -8.3027  -7.7037  -6.2480  -5.9036  -4.6325
    -4.2469  -3.4958  -2.9204  -2.8822  -2.3224  -1.6097  -1.2275  -0.5976
    -0.4475  -0.0102   0.5785   1.5980   1.8891   2.6394   3.0644   3.2989

          k =-0.2500 0.2500 0.0000 ( 14420 PWs)   bands (ev):

   -11.4749  -9.7844  -9.5469  -8.4696  -7.4847  -6.7400  -5.8848  -4.7963
    -4.1427  -3.2737  -2.7856  -2.2979  -2.2882  -1.5718  -1.2407  -0.8373
    -0.5045   0.0779   0.6620   1.6193   1.6778   1.9415   2.5775   3.0984

          k =-0.2500 0.3750 0.0000 ( 14427 PWs)   bands (ev):

   -11.1826 -10.1715  -9.3971  -8.7363  -7.7393  -6.4531  -5.7402  -5.0566
    -3.7954  -3.5249  -2.8524  -2.2837  -1.9441  -1.7085  -1.2442  -0.9321
    -0.3267   0.2954   0.8190   1.6603   1.9086   2.2418   2.7620   3.0167

          k =-0.3750 0.3750 0.0000 ( 14444 PWs)   bands (ev):

   -10.8849 -10.1930  -9.4426  -9.2199  -7.7062  -6.6358  -5.5945  -5.3081
    -3.7554  -3.1842  -2.7608  -2.1199  -1.7856  -1.3958  -1.2741  -1.1671
    -0.2120   0.5272   1.1130   1.6841   2.0438   2.0738   2.6201   2.8665

     the Fermi energy is    -0.6047 ev

!    total energy              =    -373.35925423 Ry
     Harris-Foulkes estimate   =    -373.35925422 Ry
     estimated scf accuracy    <          8.2E-09 Ry

     convergence has been achieved in   5 iterations

     negative rho (up, down):  1.212E-06 0.000E+00

     Forces acting on atoms (cartesian axes, Ry/au):

     atom    1 type  1   force =    -0.00003906   -0.00003906   -0.00121821
     atom    2 type  1   force =    -0.00021202    0.00146416   -0.00026922
     atom    3 type  1   force =     0.00146416   -0.00021202   -0.00026922
     atom    4 type  1   force =    -0.00032235   -0.00032235    0.00190676
     atom    5 type  1   force =    -0.00113217   -0.00113217    0.00034104
     atom    6 type  1   force =    -0.00007526   -0.00040630   -0.00012783
     atom    7 type  1   force =    -0.00040630   -0.00007526   -0.00012783
     atom    8 type  1   force =     0.00072301    0.00072301   -0.00023549

     Total force =     0.003743     Total SCF correction =     0.000066


     Computing stress (Cartesian axis) and pressure


     negative rho (up, down):  1.212E-06 0.000E+00
          total   stress  (Ry/bohr**3)                   (kbar)     P=   -6.70
  -0.00006741   0.00006473   0.00000064         -9.92      9.52      0.09
   0.00006473  -0.00006741   0.00000064          9.52     -9.92      0.09
   0.00000064   0.00000064  -0.00000186          0.09      0.09     -0.27


     Damped Dynamics: convergence achieved in  26 steps

     End of damped dynamics calculation

     Final energy =    -373.3592542253 Ry

Begin final coordinates
     new unit-cell volume =   2824.82338 a.u.^3 (   418.59563 Ang^3 )
     density =      0.89132 g/cm^3

CELL_PARAMETERS (alat= 10.28030462)
   1.000000000   0.000000000   0.000000000
   0.000000000   1.000000000   0.000000000
   0.000000000   0.000000000   2.600000000

ATOMIC_POSITIONS (angstrom)
Si       0.000466930   0.000466930   4.301816907
Si       0.018125349   2.738386914   7.192953363
Si       2.738386914   0.018125349   7.192953363
Si       2.722751641   2.722751641   4.532565084
Si       1.321343756   1.321343756   5.783446733
Si       0.856227400   4.624413260   8.303241251
Si       4.624413260   0.856227400   8.303241251
Si       4.121311498   4.121311498   5.785932526
End final coordinates



     Writing output data file Si.Fd-3m_1ML.save/
 
     init_run     :      2.30s CPU      7.07s WALL (       1 calls)
     electrons    :   6941.46s CPU  17999.11s WALL (      27 calls)
     update_pot   :     16.53s CPU     43.90s WALL (      26 calls)
     forces       :     18.13s CPU     50.27s WALL (      27 calls)
     stress       :     28.29s CPU     63.81s WALL (      27 calls)

     Called by init_run:
     wfcinit      :      1.16s CPU      3.70s WALL (       1 calls)
     potinit      :      0.44s CPU      1.15s WALL (       1 calls)
     hinit0       :      0.21s CPU      0.44s WALL (       1 calls)

     Called by electrons:
     c_bands      :   5697.68s CPU  14664.33s WALL (     234 calls)
     sum_band     :    163.57s CPU    564.89s WALL (     234 calls)
     v_of_rho     :     40.84s CPU     91.60s WALL (     254 calls)
     newd         :      5.40s CPU     17.51s WALL (     254 calls)
     PAW_pot      :     62.34s CPU    176.89s WALL (     280 calls)
     mix_rho      :    774.84s CPU   1696.42s WALL (     234 calls)

     Called by c_bands:
     init_us_2    :      4.22s CPU      6.53s WALL (    3843 calls)
     ccgdiagg     :   4365.02s CPU   9550.74s WALL (    1682 calls)
     wfcrot       :    179.44s CPU    578.02s WALL (    1451 calls)

     Called by sum_band:
     sum_band:bec :      0.02s CPU      0.05s WALL (    1820 calls)
     addusdens    :      4.74s CPU     15.07s WALL (     234 calls)

     Called by *cgdiagg:
     h_psi        :   1720.67s CPU   4308.48s WALL (  139979 calls)
     s_psi        :    132.74s CPU    185.31s WALL (  278507 calls)
     cdiaghg      :     17.62s CPU     37.35s WALL (    1451 calls)

     Called by h_psi:
     h_psi:pot    :   1716.96s CPU   4303.19s WALL (  139979 calls)
     h_psi:calbec :    999.78s CPU   2113.57s WALL (  139979 calls)
     vloc_psi     :    643.22s CPU   2072.40s WALL (  139979 calls)
     add_vuspsi   :     72.85s CPU    116.32s WALL (  139979 calls)
     hs_1psi      :   1639.81s CPU   3907.73s WALL (  138528 calls)
     s_1psi       :    834.07s CPU   1698.69s WALL (  138528 calls)

     General routines
     calbec       :   1780.60s CPU   3773.89s WALL (  281272 calls)
     fft          :      8.78s CPU     31.76s WALL (    3502 calls)
     ffts         :    101.34s CPU    319.27s WALL (   40484 calls)
     fftw         :    639.18s CPU   2189.03s WALL (  386128 calls)
 
     Parallel routines
     fft_scatt_xy :     63.54s CPU    156.33s WALL (  430114 calls)
     fft_scatt_yz :    493.27s CPU   1992.70s WALL (  430114 calls)
 
     PWSCF        :      1h57m CPU      5h 4m WALL

 
   This run was terminated on:  20:24: 1  25Sep2021            

=------------------------------------------------------------------------------=
   JOB DONE.
=------------------------------------------------------------------------------=
