
     Program PWSCF v.6.4.1 starts on  5Sep2021 at 13:47:24 

     This program is part of the open-source Quantum ESPRESSO suite
     for quantum simulation of materials; please cite
         "P. Giannozzi et al., J. Phys.:Condens. Matter 21 395502 (2009);
         "P. Giannozzi et al., J. Phys.:Condens. Matter 29 465901 (2017);
          URL http://www.quantum-espresso.org", 
     in publications or presentations arising from this work. More details at
     http://www.quantum-espresso.org/quote

     Parallel version (MPI), running on    60 processors

     MPI processes distributed on    15 nodes
     K-points division:     npool     =      15
     R & G space division:  proc/nbgrp/npool/nimage =       4
     Reading input from Si.Fd-3m_7ML.scf.in

     Current dimensions of program PWSCF are:
     Max number of different atomic species (ntypx) = 10
     Max number of k-points (npk) =  40000
     Max angular momentum in pseudopotentials (lmaxx) =  3
               file Si.pbe-nl-kjpaw_psl.1.0.0.UPF: wavefunction(s)  3S 3P renormalized

     Subspace diagonalization in iterative solution of the eigenvalue problem:
     a serial algorithm will be used

     Message from routine setup:
     DEPRECATED: symmetry with ibrav=0, use correct ibrav instead
 
     Parallelization info
     --------------------
     sticks:   dense  smooth     PW     G-vecs:    dense   smooth      PW
     Min         369     369    106                91407    91407   14361
     Max         371     371    108                91417    91417   14374
     Sum        1481    1481    429               365645   365645   57477
 

     Title: 
     Relaxation of atomic positions for single monolayer slab of Si using PBE   


     bravais-lattice index     =            0
     lattice parameter (alat)  =      10.2803  a.u.
     unit-cell volume          =    9343.6466 (a.u.)^3
     number of atoms/cell      =           56
     number of atomic types    =            1
     number of electrons       =       224.00
     number of Kohn-Sham states=          168
     kinetic-energy cutoff     =      45.0000  Ry
     charge density cutoff     =     175.0000  Ry
     convergence threshold     =      1.0E-08
     mixing beta               =       0.5000
     number of iterations used =            8  local-TF  mixing
     Exchange-correlation      = SLA PW PBX PBC ( 1  4  3  4 0 0)

     celldm(1)=  10.280305  celldm(2)=   0.000000  celldm(3)=   0.000000
     celldm(4)=   0.000000  celldm(5)=   0.000000  celldm(6)=   0.000000

     crystal axes: (cart. coord. in units of alat)
               a(1) = (   1.000000   0.000000   0.000000 )  
               a(2) = (   0.000000   1.000000   0.000000 )  
               a(3) = (   0.000000   0.000000   8.600000 )  

     reciprocal axes: (cart. coord. in units 2 pi/alat)
               b(1) = (  1.000000  0.000000  0.000000 )  
               b(2) = (  0.000000  1.000000  0.000000 )  
               b(3) = (  0.000000  0.000000  0.116279 )  


     PseudoPot. # 1 for Si read from file:
     /share/pseudo/Si.pbe-nl-kjpaw_psl.1.0.0.UPF
     MD5 check sum: 3686bff6734aab787fb18a3c8374d51f
     Pseudo is Projector augmented-wave + core cor, Zval =  4.0
     Generated using "atomic" code by A. Dal Corso v.6.3
     Shape of augmentation charge: PSQ
     Using radial grid of 1141 points,  4 beta functions with: 
                l(1) =   0
                l(2) =   0
                l(3) =   1
                l(4) =   1
     Q(r) pseudized with 0 coefficients 


     atomic species   valence    mass     pseudopotential
        Si             4.00    28.08600     Si( 1.00)

      2 Sym. Ops. (no inversion) found



   Cartesian axes

     site n.     atom                  positions (alat units)
         1           Si  tau(   1) = (   0.0020930   0.0020930   0.7709279  )
         2           Si  tau(   2) = (   0.0021055   0.5020934   1.2972504  )
         3           Si  tau(   3) = (   0.5020934   0.0021055   1.2972504  )
         4           Si  tau(   4) = (   0.5021025   0.5021025   0.8222851  )
         5           Si  tau(   5) = (   0.2409207   0.2409207   1.0453191  )
         6           Si  tau(   6) = (   0.2527136   0.7514812   1.5484199  )
         7           Si  tau(   7) = (   0.7514812   0.2527136   1.5484199  )
         8           Si  tau(   8) = (   0.7632786   0.7632786   1.0453354  )
         9           Si  tau(   9) = (   0.0020942   0.0020942   1.8000426  )
        10           Si  tau(  10) = (   0.0020707   0.5020655   2.3055693  )
        11           Si  tau(  11) = (   0.5020655   0.0020707   2.3055693  )
        12           Si  tau(  12) = (   0.5020889   0.5020889   1.8017561  )
        13           Si  tau(  13) = (   0.2517809   0.2517809   2.0531739  )
        14           Si  tau(  14) = (   0.2521213   0.7519985   2.5578955  )
        15           Si  tau(  15) = (   0.7519985   0.2521213   2.5578955  )
        16           Si  tau(  16) = (   0.7523971   0.7523971   2.0531737  )
        17           Si  tau(  17) = (   0.0020301   0.0020301   2.8100636  )
        18           Si  tau(  18) = (   0.0019882   0.5019803   3.3146628  )
        19           Si  tau(  19) = (   0.5019803   0.0019882   3.3146628  )
        20           Si  tau(  20) = (   0.5020278   0.5020278   2.8102099  )
        21           Si  tau(  21) = (   0.2520055   0.2520055   3.0624154  )
        22           Si  tau(  22) = (   0.2519600   0.7519851   3.5669495  )
        23           Si  tau(  23) = (   0.7519851   0.2519600   3.5669495  )
        24           Si  tau(  24) = (   0.7520350   0.7520350   3.0624216  )
        25           Si  tau(  25) = (   0.0019379   0.0019379   3.8192673  )
        26           Si  tau(  26) = (   0.0018967   0.5018918   4.3237680  )
        27           Si  tau(  27) = (   0.5018918   0.0018967   4.3237680  )
        28           Si  tau(  28) = (   0.5019346   0.5019346   3.8191468  )
        29           Si  tau(  29) = (   0.2519828   0.2519828   4.0714981  )
        30           Si  tau(  30) = (   0.2517501   0.7520167   4.5760675  )
        31           Si  tau(  31) = (   0.7520167   0.2517501   4.5760675  )
        32           Si  tau(  32) = (   0.7518707   0.7518707   4.0715000  )
        33           Si  tau(  33) = (   0.0018539   0.0018539   4.8287634  )
        34           Si  tau(  34) = (   0.0018176   0.5018138   5.3329548  )
        35           Si  tau(  35) = (   0.5018138   0.0018176   5.3329548  )
        36           Si  tau(  36) = (   0.5018482   0.5018482   4.8279401  )
        37           Si  tau(  37) = (   0.2521766   0.2521766   5.0806617  )
        38           Si  tau(  38) = (   0.2509471   0.7526645   5.5852640  )
        39           Si  tau(  39) = (   0.7526645   0.2509471   5.5852640  )
        40           Si  tau(  40) = (   0.7515084   0.7515084   5.0806599  )
        41           Si  tau(  41) = (   0.0017691   0.0017691   5.8401371  )
        42           Si  tau(  42) = (   0.0017438   0.5017395   6.3420407  )
        43           Si  tau(  43) = (   0.5017395   0.0017438   6.3420407  )
        44           Si  tau(  44) = (   0.5017672   0.5017672   5.8349123  )
        45           Si  tau(  45) = (   0.2538723   0.2538723   6.0898060  )
        46           Si  tau(  46) = (   0.2455640   0.7579020   6.5941456  )
        47           Si  tau(  47) = (   0.7579020   0.2455640   6.5941456  )
        48           Si  tau(  48) = (   0.7496460   0.7496460   6.0898089  )
        49           Si  tau(  49) = (   0.0016891   0.0016891   6.8650153  )
        50           Si  tau(  50) = (   0.0016125   0.5015852   7.3560277  )
        51           Si  tau(  51) = (   0.5015852   0.0016125   7.3560277  )
        52           Si  tau(  52) = (   0.5016824   0.5016824   6.8278183  )
        53           Si  tau(  53) = (   0.2653012   0.2653012   7.1003574  )
        54           Si  tau(  54) = (   0.1486753   0.8545060   7.5490928  )
        55           Si  tau(  55) = (   0.8545060   0.1486753   7.5490928  )
        56           Si  tau(  56) = (   0.7380516   0.7380516   7.1003605  )

     number of k points=    21  gaussian smearing, width (Ry)=  0.0100
                       cart. coord. in units 2pi/alat
        k(    1) = (   0.0000000   0.0000000   0.0000000), wk =   0.0312500
        k(    2) = (   0.0000000   0.1250000   0.0000000), wk =   0.1250000
        k(    3) = (   0.0000000   0.2500000   0.0000000), wk =   0.1250000
        k(    4) = (   0.0000000   0.3750000   0.0000000), wk =   0.1250000
        k(    5) = (   0.0000000  -0.5000000   0.0000000), wk =   0.0625000
        k(    6) = (   0.1250000   0.1250000   0.0000000), wk =   0.0625000
        k(    7) = (   0.1250000   0.2500000   0.0000000), wk =   0.1250000
        k(    8) = (   0.1250000   0.3750000   0.0000000), wk =   0.1250000
        k(    9) = (   0.1250000  -0.5000000   0.0000000), wk =   0.1250000
        k(   10) = (   0.2500000   0.2500000   0.0000000), wk =   0.0625000
        k(   11) = (   0.2500000   0.3750000   0.0000000), wk =   0.1250000
        k(   12) = (   0.2500000  -0.5000000   0.0000000), wk =   0.1250000
        k(   13) = (   0.3750000   0.3750000   0.0000000), wk =   0.0625000
        k(   14) = (   0.3750000  -0.5000000   0.0000000), wk =   0.1250000
        k(   15) = (  -0.5000000  -0.5000000   0.0000000), wk =   0.0312500
        k(   16) = (  -0.1250000   0.1250000   0.0000000), wk =   0.0625000
        k(   17) = (  -0.1250000   0.2500000   0.0000000), wk =   0.1250000
        k(   18) = (  -0.1250000   0.3750000   0.0000000), wk =   0.1250000
        k(   19) = (  -0.2500000   0.2500000   0.0000000), wk =   0.0625000
        k(   20) = (  -0.2500000   0.3750000   0.0000000), wk =   0.1250000
        k(   21) = (  -0.3750000   0.3750000   0.0000000), wk =   0.0625000

     Dense  grid:   365645 G-vectors     FFT dimensions: (  45,  45, 375)

     Estimated max dynamical RAM per process >     307.09 MB

     Estimated total dynamical RAM >      17.99 GB

     Initial potential from superposition of free atoms

     starting charge  223.96868, renormalised to  224.00000

     negative rho (up, down):  5.531E-06 0.000E+00
     Starting wfcs are  224 randomized atomic wfcs
     Checking if some PAW data can be deallocated... 

     total cpu time spent up to now is       13.8 secs

     Self-consistent Calculation

     iteration #  1     ecut=    45.00 Ry     beta= 0.50
     CG style diagonalization
     ethr =  1.00E-02,  avg # of iterations =  3.4

     Threshold (ethr) on eigenvalues was too large:
     Diagonalizing with lowered threshold

     CG style diagonalization
     ethr =  7.53E-04,  avg # of iterations =  2.3

     total cpu time spent up to now is      233.9 secs

     total energy              =   -2616.32809252 Ry
     Harris-Foulkes estimate   =   -2616.53626433 Ry
     estimated scf accuracy    <       1.68752911 Ry

     iteration #  2     ecut=    45.00 Ry     beta= 0.50
     CG style diagonalization
     ethr =  7.53E-04,  avg # of iterations =  3.0

     total cpu time spent up to now is      316.7 secs

     total energy              =   -2616.15285402 Ry
     Harris-Foulkes estimate   =   -2616.36592321 Ry
     estimated scf accuracy    <       0.81305516 Ry

     iteration #  3     ecut=    45.00 Ry     beta= 0.50
     CG style diagonalization
     ethr =  3.63E-04,  avg # of iterations =  3.0

     total cpu time spent up to now is      400.2 secs

     total energy              =   -2616.20879868 Ry
     Harris-Foulkes estimate   =   -2616.21123464 Ry
     estimated scf accuracy    <       0.08836375 Ry

     iteration #  4     ecut=    45.00 Ry     beta= 0.50
     CG style diagonalization
     c_bands:  3 eigenvalues not converged
     ethr =  3.94E-05,  avg # of iterations =  5.4

     total cpu time spent up to now is      633.8 secs

     total energy              =   -2616.22490422 Ry
     Harris-Foulkes estimate   =   -2616.22495369 Ry
     estimated scf accuracy    <       0.01965773 Ry

     iteration #  5     ecut=    45.00 Ry     beta= 0.50
     CG style diagonalization
     c_bands:  1 eigenvalues not converged
     c_bands:  1 eigenvalues not converged
     ethr =  8.78E-06,  avg # of iterations =  3.9

     total cpu time spent up to now is      760.0 secs

     total energy              =   -2616.22408731 Ry
     Harris-Foulkes estimate   =   -2616.22577915 Ry
     estimated scf accuracy    <       0.01674405 Ry

     iteration #  6     ecut=    45.00 Ry     beta= 0.50
     CG style diagonalization
     c_bands:  1 eigenvalues not converged
     c_bands:  1 eigenvalues not converged
     ethr =  7.48E-06,  avg # of iterations =  3.1

     total cpu time spent up to now is      849.8 secs

     total energy              =   -2616.22422152 Ry
     Harris-Foulkes estimate   =   -2616.22477197 Ry
     estimated scf accuracy    <       0.01226292 Ry

     iteration #  7     ecut=    45.00 Ry     beta= 0.50
     CG style diagonalization
     ethr =  5.47E-06,  avg # of iterations =  3.1

     total cpu time spent up to now is      940.5 secs

     total energy              =   -2616.22425737 Ry
     Harris-Foulkes estimate   =   -2616.22452335 Ry
     estimated scf accuracy    <       0.00548060 Ry

     iteration #  8     ecut=    45.00 Ry     beta= 0.50
     CG style diagonalization
     c_bands:  1 eigenvalues not converged
     ethr =  2.45E-06,  avg # of iterations =  3.6

     total cpu time spent up to now is     1051.7 secs

     total energy              =   -2616.22443822 Ry
     Harris-Foulkes estimate   =   -2616.22453757 Ry
     estimated scf accuracy    <       0.00193010 Ry

     iteration #  9     ecut=    45.00 Ry     beta= 0.50
     CG style diagonalization
     ethr =  8.62E-07,  avg # of iterations =  3.1

     negative rho (up, down):  1.702E-03 0.000E+00

     total cpu time spent up to now is     1148.7 secs

     total energy              =   -2616.22454594 Ry
     Harris-Foulkes estimate   =   -2616.22453487 Ry
     estimated scf accuracy    <       0.00138448 Ry

     iteration # 10     ecut=    45.00 Ry     beta= 0.50
     CG style diagonalization
     ethr =  6.18E-07,  avg # of iterations =  3.0

     negative rho (up, down):  4.604E-05 0.000E+00

     total cpu time spent up to now is     1238.5 secs

     total energy              =   -2616.22450810 Ry
     Harris-Foulkes estimate   =   -2616.22457909 Ry
     estimated scf accuracy    <       0.00079667 Ry

     iteration # 11     ecut=    45.00 Ry     beta= 0.50
     CG style diagonalization
     c_bands:  1 eigenvalues not converged
     ethr =  3.56E-07,  avg # of iterations =  3.0

     negative rho (up, down):  5.560E-04 0.000E+00

     total cpu time spent up to now is     1326.0 secs

     total energy              =   -2616.22451556 Ry
     Harris-Foulkes estimate   =   -2616.22453109 Ry
     estimated scf accuracy    <       0.00022066 Ry

     iteration # 12     ecut=    45.00 Ry     beta= 0.50
     CG style diagonalization
     ethr =  9.85E-08,  avg # of iterations =  3.1

     negative rho (up, down):  8.596E-07 0.000E+00

     total cpu time spent up to now is     1417.1 secs

     total energy              =   -2616.22452015 Ry
     Harris-Foulkes estimate   =   -2616.22452910 Ry
     estimated scf accuracy    <       0.00007911 Ry

     iteration # 13     ecut=    45.00 Ry     beta= 0.50
     CG style diagonalization
     ethr =  3.53E-08,  avg # of iterations =  3.1

     total cpu time spent up to now is     1498.5 secs

     total energy              =   -2616.22451162 Ry
     Harris-Foulkes estimate   =   -2616.22452490 Ry
     estimated scf accuracy    <       0.00005085 Ry

     iteration # 14     ecut=    45.00 Ry     beta= 0.50
     CG style diagonalization
     ethr =  2.27E-08,  avg # of iterations =  3.1

     total cpu time spent up to now is     1578.5 secs

     total energy              =   -2616.22451917 Ry
     Harris-Foulkes estimate   =   -2616.22451591 Ry
     estimated scf accuracy    <       0.00001205 Ry

     iteration # 15     ecut=    45.00 Ry     beta= 0.50
     CG style diagonalization
     ethr =  5.38E-09,  avg # of iterations =  3.4

     negative rho (up, down):  3.394E-07 0.000E+00

     total cpu time spent up to now is     1675.9 secs

     total energy              =   -2616.22452162 Ry
     Harris-Foulkes estimate   =   -2616.22452167 Ry
     estimated scf accuracy    <       0.00000560 Ry

     iteration # 16     ecut=    45.00 Ry     beta= 0.50
     CG style diagonalization
     ethr =  2.50E-09,  avg # of iterations =  3.2

     total cpu time spent up to now is     1760.8 secs

     total energy              =   -2616.22452207 Ry
     Harris-Foulkes estimate   =   -2616.22452257 Ry
     estimated scf accuracy    <       0.00000215 Ry

     iteration # 17     ecut=    45.00 Ry     beta= 0.50
     CG style diagonalization
     ethr =  9.58E-10,  avg # of iterations =  3.1

     negative rho (up, down):  6.878E-07 0.000E+00

     total cpu time spent up to now is     1848.1 secs

     total energy              =   -2616.22452217 Ry
     Harris-Foulkes estimate   =   -2616.22452220 Ry
     estimated scf accuracy    <       0.00000084 Ry

     iteration # 18     ecut=    45.00 Ry     beta= 0.50
     CG style diagonalization
     ethr =  3.75E-10,  avg # of iterations =  3.2

     negative rho (up, down):  4.771E-07 0.000E+00

     total cpu time spent up to now is     1941.4 secs

     total energy              =   -2616.22452229 Ry
     Harris-Foulkes estimate   =   -2616.22452229 Ry
     estimated scf accuracy    <       0.00000009 Ry

     iteration # 19     ecut=    45.00 Ry     beta= 0.50
     CG style diagonalization
     ethr =  4.06E-11,  avg # of iterations =  3.5

     negative rho (up, down):  2.227E-07 0.000E+00

     total cpu time spent up to now is     2043.1 secs

     total energy              =   -2616.22452236 Ry
     Harris-Foulkes estimate   =   -2616.22452232 Ry
     estimated scf accuracy    <       0.00000001 Ry

     iteration # 20     ecut=    45.00 Ry     beta= 0.50
     CG style diagonalization
     ethr =  5.60E-12,  avg # of iterations =  3.5

     negative rho (up, down):  1.681E-07 0.000E+00

     total cpu time spent up to now is     2138.0 secs

     End of self-consistent calculation

          k = 0.0000 0.0000 0.0000 ( 47593 PWs)   bands (ev):

    -7.8140  -7.7296  -7.6345  -7.4997  -7.3203  -7.0978  -6.8329  -6.5267
    -6.1812  -5.7989  -5.3830  -4.9360  -4.4603  -3.9591  -3.7249  -3.7248
    -3.7245  -3.7245  -3.6830  -3.6806  -3.6796  -3.6795  -3.6629  -3.6465
    -3.6386  -3.6376  -3.6274  -3.6236  -3.6051  -3.6003  -3.5968  -3.5960
    -3.5729  -3.5590  -3.5466  -3.5426  -3.5374  -3.5269  -3.4952  -3.4173
    -3.3313  -2.8815  -2.4583  -2.4027  -2.3208  -1.7524  -1.1775  -0.6002
    -0.0280   0.0898   0.2795   0.2813   0.2816   0.2908   0.3982   0.4210
     0.4223   0.4558   0.5007   0.5986   0.6005   0.6210   0.6620   0.7758
     0.8046   0.8049   0.8867   0.9749   1.0051   1.0116   1.0881   1.1077
     1.1390   1.1501   1.1980   1.2783   1.2805   1.2981   1.3709   1.3733
     1.4607   1.4815   1.4841   1.6165   1.6205   1.7149   1.7693   1.7913
     1.9471   1.9954   2.1599   2.2328   2.2487   2.4091   2.5022   2.6880
     2.7546   2.8003   2.9866   3.1188   3.1999   3.2929   3.4056   3.4420
     3.5014   3.5798   3.5913   3.7374   3.8548   3.8650   3.9022   3.9821
     4.0045   4.2215   4.7107   4.7122   4.8114   4.8223   4.8654   4.8676
     4.8894   4.9041   4.9352   4.9699   5.0998   5.1493   5.1938   5.2034
     5.2627   5.3124   5.3246   5.4049   5.5459   5.6052   5.6336   5.6647
     5.8104   5.8259   5.8735   5.9855   6.0691   6.1275   6.1293   6.2219
     6.2226   6.4305   6.4517   6.5208   6.5331   6.5634   6.5947   6.6523
     6.7254   6.8528   6.8626   6.9102   7.0057   7.0915   7.2235   7.2238
     7.2338   7.3423   7.4127   7.4924   7.5185   7.5361   7.7893   7.8704

          k = 0.0000 0.1250 0.0000 ( 47604 PWs)   bands (ev):

    -7.7462  -7.6622  -7.5676  -7.4335  -7.2551  -7.0338  -6.7706  -6.4667
    -6.1240  -5.7455  -5.3347  -4.8957  -4.6304  -4.5657  -4.5023  -4.4473
    -4.3983  -4.3274  -4.2332  -4.1347  -4.0392  -3.9555  -3.9202  -3.8810
    -3.8195  -3.7606  -3.6990  -3.6309  -3.5542  -3.4674  -3.4136  -3.3699
    -3.2640  -3.1526  -3.0417  -2.9403  -2.8937  -2.8489  -2.7891  -2.7527
    -2.7210  -2.6980  -2.4102  -2.2083  -2.1899  -1.7614  -1.2316  -0.7011
    -0.1984  -0.0663  -0.0632   0.0276   0.0832   0.1597   0.2743   0.3445
     0.4085   0.5103   0.6102   0.7441   0.7644   0.7649   0.8217   0.8797
     0.8981   0.9118   0.9976   1.0328   1.0362   1.0880   1.0893   1.1048
     1.1567   1.1787   1.1843   1.1949   1.2054   1.2384   1.2699   1.3006
     1.3145   1.3891   1.4044   1.4525   1.4659   1.5335   1.6401   1.6526
     1.8187   1.8695   1.8956   2.0782   2.1358   2.3160   2.3677   2.4407
     2.6693   2.7332   2.7875   2.9958   3.1118   3.1447   3.3093   3.3970
     3.4444   3.4962   3.5836   3.6231   3.7010   3.7288   3.8334   3.8849
     4.1037   4.2510   4.7538   4.9845   4.9933   5.0893   5.0906   5.1316
     5.1844   5.1896   5.1998   5.2921   5.3216   5.3297   5.3656   5.4608
     5.5125   5.5408   5.6124   5.6657   5.7182   5.7546   5.8506   5.9034
     5.9836   5.9979   6.0501   6.1432   6.1745   6.2685   6.3108   6.4243
     6.4769   6.5257   6.5780   6.6233   6.7117   6.7264   6.7829   6.8434
     6.8813   6.9272   6.9417   6.9656   7.0796   7.0995   7.1288   7.2376
     7.2814   7.3771   7.4778   7.5724   7.6312   7.6691   7.7441   7.7806

          k = 0.0000 0.2500 0.0000 ( 47518 PWs)   bands (ev):

    -7.5435  -7.4605  -7.3679  -7.2361  -7.0608  -6.8437  -6.5861  -6.2896
    -5.9573  -5.5956  -5.4444  -5.3695  -5.2939  -5.2211  -5.1522  -5.0511
    -4.9130  -4.7772  -4.7149  -4.5665  -4.3904  -4.3012  -4.2044  -4.0414
    -3.8881  -3.8392  -3.7394  -3.5996  -3.4587  -3.3739  -3.3093  -3.1549
    -2.9919  -2.9057  -2.8047  -2.6268  -2.4843  -2.3926  -2.2430  -2.0959
    -1.9994  -1.8788  -1.7848  -1.7191  -1.6601  -1.5210  -1.3491  -0.9387
    -0.5254  -0.2492  -0.2441  -0.1612  -0.0976  -0.0727   0.0697   0.0973
     0.2306   0.3399   0.3931   0.5109   0.6196   0.6660   0.6672   0.7484
     0.7694   0.7967   0.8125   0.9099   0.9207   0.9307   1.0516   1.0941
     1.1549   1.1901   1.2247   1.2912   1.3195   1.3205   1.3323   1.3802
     1.3945   1.4080   1.4260   1.4728   1.5112   1.5427   1.5725   1.6054
     1.6280   1.6812   1.6936   1.7669   1.8437   1.9159   2.0751   2.1515
     2.2526   2.4531   2.4831   2.6159   2.7404   2.8499   2.9692   3.1673
     3.1762   3.3662   3.4462   3.4973   3.5843   3.6704   3.7029   3.8829
     4.2019   4.3959   4.7948   5.1501   5.3155   5.3339   5.5057   5.6416
     5.6672   5.6972   5.7499   5.9071   6.0107   6.0137   6.0152   6.0953
     6.1063   6.1230   6.1446   6.2094   6.2401   6.2704   6.3075   6.3905
     6.4144   6.4623   6.5189   6.5870   6.6111   6.6793   6.7392   6.7921
     6.8248   6.8641   6.9966   7.0332   7.0685   7.0976   7.1312   7.1415
     7.1583   7.3070   7.3108   7.3505   7.4261   7.4556   7.4823   7.5453
     7.5988   7.6173   7.6579   7.7280   7.7595   7.7805   7.8271   7.9278

          k = 0.0000 0.3750 0.0000 ( 47530 PWs)   bands (ev):

    -7.2078  -7.1275  -7.0396  -6.9125  -6.7435  -6.5358  -6.2934  -6.1518
    -6.0761  -6.0293  -5.9601  -5.8600  -5.7390  -5.6496  -5.5299  -5.3583
    -5.2804  -5.1019  -4.9390  -4.8427  -4.6009  -4.5342  -4.3268  -4.1478
    -4.0620  -3.8287  -3.7284  -3.5871  -3.3736  -3.3155  -3.1425  -2.9578
    -2.8948  -2.7047  -2.5652  -2.4448  -2.2701  -2.1402  -1.9803  -1.8272
    -1.6751  -1.5160  -1.3674  -1.2039  -1.0721  -0.9036  -0.8031  -0.6641
    -0.5846  -0.5088  -0.2611  -0.2498  -0.2193  -0.1118  -0.1057   0.0314
     0.0770   0.1498   0.2353   0.2375   0.2821   0.3163   0.3540   0.3608
     0.4492   0.5033   0.5396   0.5833   0.6105   0.6978   0.7242   0.8561
     0.8767   0.9281   0.9588   1.0298   1.1598   1.2233   1.2605   1.2809
     1.3538   1.4699   1.5171   1.6005   1.6298   1.6312   1.7324   1.7472
     1.8208   1.8839   1.9091   1.9421   1.9959   2.0250   2.1008   2.1168
     2.1440   2.1842   2.2213   2.3137   2.3844   2.5926   2.6215   2.7756
     2.8998   3.0417   3.1576   3.2591   3.3073   3.6048   3.8432   4.0370
     4.2859   4.6377   4.9849   5.2149   5.3204   5.6240   5.7560   5.8380
     5.8587   6.0160   6.0822   6.1539   6.2932   6.3568   6.4082   6.5178
     6.5903   6.6747   6.7718   6.8536   6.9920   7.0148   7.0659   7.0970
     7.1231   7.2181   7.2259   7.2294   7.2466   7.3126   7.3210   7.3521
     7.3946   7.4218   7.4342   7.5140   7.5467   7.5776   7.6137   7.6323
     7.6817   7.6977   7.7089   7.7759   7.7935   7.8961   7.9334   7.9831
     8.0239   8.0823   8.1361   8.1653   8.2289   8.2720   8.3108   8.3529

          k = 0.0000-0.5000 0.0000 ( 47494 PWs)   bands (ev):

    -6.7458  -6.7424  -6.7080  -6.6562  -6.6211  -6.5510  -6.4887  -6.4155
    -6.3223  -6.2467  -6.1208  -6.0436  -5.8836  -5.8079  -5.6126  -5.5450
    -5.3157  -5.2565  -4.9992  -4.9444  -4.6690  -4.6153  -4.3311  -4.2776
    -3.9925  -3.9393  -3.6607  -3.6061  -3.3420  -3.2817  -3.0390  -2.9679
    -2.7525  -2.6628  -2.4758  -2.3616  -2.1960  -2.0590  -1.9046  -1.7508
    -1.5999  -1.4338  -1.2830  -1.1063  -0.9563  -0.7717  -0.6248  -0.4388
    -0.2958  -0.1394  -0.0861  -0.0853  -0.0832  -0.0795   0.0115   0.0251
     0.0396   0.0476   0.0605   0.1142   0.1991   0.2268   0.2322   0.2541
     0.3094   0.3360   0.4095   0.4543   0.4594   0.4783   0.5058   0.5922
     0.6735   0.6820   0.7577   0.7797   0.9527   0.9911   1.0803   1.0940
     1.2815   1.3533   1.4153   1.4483   1.6186   1.6851   1.7564   1.8160
     1.8858   1.9493   2.0585   2.0704   2.1336   2.2077   2.2081   2.2756
     2.3138   2.3883   2.4102   2.4848   2.5479   2.5977   2.6039   2.6794
     2.7142   2.7533   2.7599   2.7800   2.8290   3.6996   3.9427   3.9821
     4.6806   4.7253   4.7797   5.2498   5.3222   5.5085   5.7368   5.9319
     6.2407   6.3234   6.4353   6.4559   6.4793   6.4822   6.5482   6.6557
     6.7496   6.7832   6.8418   6.8644   6.9979   7.0445   7.1719   7.1839
     7.2274   7.2483   7.3003   7.3146   7.4892   7.4943   7.4973   7.6036
     7.6061   7.6574   7.7080   7.8124   7.8738   7.9877   8.0449   8.1081
     8.1615   8.2073   8.2777   8.3377   8.4011   8.4243   8.5181   8.5458
     8.5509   8.5807   8.6131   8.6487   8.6746   8.6852   8.6927   8.7421

          k = 0.1250 0.1250 0.0000 ( 47583 PWs)   bands (ev):

    -7.6787  -7.5950  -7.5011  -7.3678  -7.1904  -6.9706  -6.7092  -6.4077
    -6.0682  -5.6939  -5.2888  -4.8591  -4.5962  -4.5962  -4.5419  -4.5402
    -4.4987  -4.4845  -4.4577  -4.4320  -4.4070  -4.3813  -4.3725  -4.3386
    -4.3220  -4.0782  -3.8946  -3.8389  -3.4517  -2.9444  -2.8788  -2.8783
    -2.8282  -2.8256  -2.7953  -2.7833  -2.7684  -2.7609  -2.7370  -2.7165
    -2.7047  -2.6668  -2.3876  -1.8836  -1.7873  -1.7693  -1.3771  -0.8829
    -0.4018  -0.0033  -0.0030   0.0357   0.0938   0.0982   0.2243   0.2245
     0.3391   0.3988   0.4556   0.5917   0.6157   0.6220   0.6592   0.7481
     0.8627   0.8819   0.9216   1.0087   1.0472   1.0488   1.0775   1.1178
     1.1719   1.1729   1.2016   1.2899   1.2950   1.3014   1.3121   1.3429
     1.3652   1.3878   1.4706   1.4784   1.5041   1.5368   1.6054   1.6079
     1.7334   1.8902   1.8956   1.9398   2.0912   2.2757   2.3190   2.3263
     2.5769   2.6505   2.7211   2.8606   2.9231   3.1185   3.1609   3.4518
     3.4614   3.5369   3.5689   3.5857   3.6750   3.7329   3.7872   3.9169
     4.1265   4.1663   4.9635   4.9785   4.9822   5.0457   5.0761   5.0884
     5.1452   5.2664   5.3247   5.3979   5.4148   5.4679   5.5472   5.6247
     5.7484   5.8051   5.9150   5.9360   5.9948   5.9962   6.0607   6.1277
     6.2048   6.2184   6.2698   6.3398   6.4482   6.4945   6.5088   6.5109
     6.5715   6.5859   6.5945   6.7269   6.7867   6.8220   6.8614   6.9193
     6.9745   6.9834   7.0151   7.0913   7.1484   7.1578   7.2741   7.3060
     7.3558   7.4177   7.4598   7.6700   7.7411   7.7825   7.7926   7.8628

          k = 0.1250 0.2500 0.0000 ( 47619 PWs)   bands (ev):

    -7.4771  -7.3945  -7.3025  -7.1718  -6.9979  -6.7827  -6.5277  -6.2347
    -5.9071  -5.5517  -5.3964  -5.3247  -5.2540  -5.1882  -5.1209  -5.0315
    -4.9161  -4.7990  -4.7191  -4.6583  -4.5707  -4.5186  -4.4964  -4.4719
    -4.2983  -4.2613  -4.1527  -3.7574  -3.4454  -2.9817  -2.8190  -2.8121
    -2.7739  -2.7432  -2.7052  -2.6157  -2.5145  -2.4453  -2.2983  -2.1349
    -2.0723  -1.9611  -1.8312  -1.7580  -1.6885  -1.3623  -1.3064  -1.1464
    -0.8142  -0.4282  -0.0414  -0.0076  -0.0043   0.1073   0.1165   0.1789
     0.2399   0.2561   0.2966   0.3533   0.4215   0.4332   0.4572   0.5899
     0.6130   0.6922   0.7585   0.8268   0.8887   0.9775   1.0868   1.1178
     1.1581   1.2286   1.3137   1.3325   1.4132   1.4276   1.4702   1.5157
     1.5192   1.5273   1.5411   1.5656   1.5772   1.6114   1.6561   1.6927
     1.7127   1.7307   1.7496   1.8273   1.8709   1.9759   2.0615   2.1350
     2.2509   2.3892   2.5216   2.7181   2.8217   3.0633   3.0817   3.1103
     3.3272   3.3806   3.4605   3.5560   3.5866   3.5940   3.7771   3.7880
     4.0998   4.3741   5.0773   5.2520   5.3817   5.3989   5.4446   5.4978
     5.5388   5.6325   5.6586   5.7355   5.8086   5.8137   5.9750   6.0184
     6.0487   6.1085   6.1439   6.2302   6.3249   6.3978   6.4325   6.4454
     6.4840   6.5452   6.5863   6.6666   6.6921   6.7730   6.8279   6.9075
     6.9369   7.0221   7.0830   7.1005   7.1485   7.1992   7.2729   7.2948
     7.3278   7.3663   7.3973   7.4595   7.5084   7.5835   7.5952   7.6062
     7.6403   7.6652   7.7055   7.7525   7.8882   7.9426   7.9879   8.0535

          k = 0.1250 0.3750 0.0000 ( 47608 PWs)   bands (ev):

    -7.1434  -7.0635  -6.9764  -6.8508  -6.6839  -6.4791  -6.2408  -6.0957
    -6.0224  -5.9802  -5.9100  -5.8131  -5.6983  -5.6116  -5.4987  -5.3384
    -5.2592  -5.1091  -4.9382  -4.8832  -4.6957  -4.5722  -4.5154  -4.4025
    -4.2579  -4.2300  -4.2196  -3.7117  -3.3423  -3.0022  -2.8789  -2.8258
    -2.7550  -2.6879  -2.6249  -2.4867  -2.3595  -2.2856  -2.0728  -2.0379
    -1.8205  -1.7302  -1.5610  -1.4129  -1.2970  -1.1049  -1.0320  -0.8497
    -0.7676  -0.6769  -0.5218  -0.2177  -0.0501  -0.0011   0.0022   0.0659
     0.0994   0.1160   0.1529   0.2048   0.2609   0.3314   0.4334   0.4950
     0.5442   0.6462   0.7070   0.8231   0.8555   0.8845   0.9428   1.0442
     1.0611   1.0973   1.1435   1.1778   1.2248   1.2743   1.3479   1.3855
     1.4587   1.4742   1.5148   1.6173   1.6306   1.7324   1.7984   1.8333
     1.8766   1.9240   2.0056   2.0218   2.0609   2.1239   2.1615   2.2071
     2.2136   2.2798   2.3354   2.5159   2.5474   2.6080   2.7909   2.8325
     2.9110   2.9909   3.0837   3.1999   3.2425   3.6626   3.8873   3.9059
     4.1932   4.6393   5.2930   5.4989   5.6500   5.7173   5.8893   5.9072
     5.9716   6.0465   6.1926   6.2155   6.3096   6.3491   6.4449   6.4865
     6.5339   6.5933   6.6451   6.6732   6.7153   6.7373   6.7835   6.8045
     6.8144   6.9276   6.9438   7.0160   7.0662   7.0862   7.1926   7.2215
     7.3033   7.3427   7.4188   7.4615   7.5197   7.5518   7.6008   7.6495
     7.6904   7.7446   7.8234   7.8826   7.9134   7.9352   7.9990   8.0618
     8.0845   8.1857   8.2638   8.2953   8.3356   8.3504   8.3614   8.4352

          k = 0.1250-0.5000 0.0000 ( 47638 PWs)   bands (ev):

    -6.6840  -6.6812  -6.6446  -6.5961  -6.5609  -6.4928  -6.4310  -6.3604
    -6.2681  -6.1957  -6.0719  -5.9987  -5.8423  -5.7716  -5.5826  -5.5212
    -5.3024  -5.2515  -5.0118  -4.9684  -4.7230  -4.6856  -4.4553  -4.4262
    -4.2521  -4.2146  -4.1470  -3.6542  -3.1787  -2.9847  -2.9673  -2.8196
    -2.7977  -2.6293  -2.6051  -2.4157  -2.3893  -2.1801  -2.1494  -1.9248
    -1.8842  -1.6525  -1.5947  -1.3649  -1.2850  -1.0617  -0.9617  -0.7441
    -0.6319  -0.4194  -0.3055  -0.1118  -0.0619  -0.0602  -0.0070   0.0143
     0.0209   0.0896   0.1219   0.1748   0.1992   0.2352   0.2535   0.3302
     0.4071   0.4228   0.5765   0.6230   0.7671   0.8156   0.8737   0.8841
     0.9765   1.0151   1.1060   1.1230   1.2398   1.2730   1.3798   1.4150
     1.5249   1.5641   1.6635   1.6887   1.7706   1.8634   1.9236   1.9584
     1.9711   1.9743   2.0492   2.1058   2.1604   2.2173   2.2405   2.2878
     2.3133   2.3476   2.4375   2.4586   2.4765   2.5868   2.6080   2.6573
     2.6713   2.7510   2.7594   2.7752   2.8230   3.6357   3.9033   3.9627
     4.5634   4.7870   5.1713   5.5775   5.6347   5.7181   5.8993   5.9899
     6.2332   6.3225   6.3933   6.4764   6.4958   6.5004   6.5391   6.6232
     6.6908   6.7269   6.7687   6.8206   6.9001   7.0447   7.1114   7.1957
     7.2266   7.2753   7.4412   7.4577   7.4958   7.5196   7.5600   7.6468
     7.6541   7.6877   7.7267   7.7534   7.7841   7.8225   7.8315   7.8692
     7.9147   7.9278   7.9450   7.9918   8.0318   8.0453   8.0714   8.1427
     8.1552   8.1921   8.2295   8.2873   8.3026   8.3327   8.3687   8.4489

          k = 0.2500 0.2500 0.0000 ( 47604 PWs)   bands (ev):

    -7.2789  -7.1975  -7.1077  -6.9803  -6.8109  -6.6021  -6.3559  -6.0751
    -5.7646  -5.4360  -5.2577  -5.2576  -5.2027  -5.1984  -5.1674  -5.1385
    -5.1163  -5.0799  -5.0581  -5.0272  -5.0157  -4.9832  -4.9739  -4.6847
    -4.6803  -4.5344  -4.3619  -3.9000  -3.3444  -2.9924  -2.7142  -2.6587
    -2.6534  -2.5282  -2.5208  -2.4328  -2.3548  -2.3162  -2.2012  -2.1775
    -2.0798  -2.0174  -1.9898  -1.9365  -1.9213  -1.6871  -1.3723  -1.0616
    -1.0258  -0.8685  -0.6703  -0.2953  -0.1502   0.0195   0.0850   0.2643
     0.4611   0.5687   0.5689   0.5689   0.5701   0.5900   0.6229   0.6248
     0.6482   0.6558   0.6728   0.6842   0.7543   0.8434   0.8578   0.9671
     0.9795   1.1578   1.2767   1.3848   1.4108   1.4401   1.5985   1.6214
     1.7005   1.7618   1.7666   1.7822   1.7919   1.8687   1.8762   1.8970
     1.9054   1.9127   1.9469   1.9720   2.0453   2.1438   2.1901   2.3609
     2.5174   2.5552   2.5762   2.7706   2.8670   2.9254   3.0008   3.1438
     3.1728   3.2346   3.4543   3.6354   3.7048   3.7200   3.7372   3.8011
     3.9924   4.5342   5.3350   5.4388   5.5524   5.5672   5.6059   5.6234
     5.6291   5.7033   5.7371   5.8580   5.8961   5.9381   5.9837   6.0289
     6.1119   6.1251   6.1544   6.2547   6.2782   6.3166   6.3471   6.3907
     6.4719   6.5931   6.6344   6.6891   6.8516   6.9188   7.0530   7.1708
     7.2042   7.2145   7.2591   7.3165   7.3588   7.3893   7.4088   7.5034
     7.5490   7.5649   7.5814   7.6068   7.6206   7.7425   7.8007   7.8511
     7.8702   7.9836   8.1223   8.1921   8.2559   8.2951   8.3865   8.4157

          k = 0.2500 0.3750 0.0000 ( 47689 PWs)   bands (ev):

    -6.9514  -6.8728  -6.7884  -6.6677  -6.5078  -6.3129  -6.0882  -5.9303
    -5.8674  -5.8381  -5.7669  -5.6832  -5.5888  -5.5148  -5.4284  -5.3116
    -5.2277  -5.1751  -5.0925  -5.0538  -5.0319  -5.0112  -4.9391  -4.7823
    -4.6962  -4.6817  -4.5242  -4.1015  -3.2034  -2.8397  -2.7409  -2.6799
    -2.6756  -2.6156  -2.5347  -2.5229  -2.4427  -2.3529  -2.3452  -2.2393
    -2.2047  -2.1288  -1.9671  -1.8888  -1.6844  -1.6114  -1.4023  -1.3020
    -1.1746  -0.9677  -0.8033  -0.6579  -0.4666  -0.2305  -0.1680  -0.0100
     0.1667   0.2526   0.2950   0.4073   0.4448   0.5641   0.6393   0.7430
     0.9004   0.9836   1.0044   1.0706   1.1404   1.2008   1.2445   1.3192
     1.3691   1.3937   1.4141   1.4611   1.4640   1.5844   1.7210   1.7422
     1.7803   1.8232   1.9194   1.9429   1.9670   1.9922   2.0208   2.0436
     2.0967   2.1345   2.1809   2.2284   2.2780   2.2921   2.3284   2.3379
     2.3578   2.4027   2.5154   2.6280   2.6881   2.7292   2.8828   2.9504
     3.0414   3.0872   3.1378   3.2658   3.3317   3.6367   3.8274   3.9091
     4.1377   4.7370   5.8317   5.9107   5.9430   5.9608   6.0104   6.0907
     6.0991   6.1133   6.1189   6.1360   6.1459   6.2203   6.2416   6.2966
     6.3488   6.3754   6.4080   6.4155   6.4463   6.4778   6.5392   6.6376
     6.6666   6.7616   6.8644   7.0285   7.0824   7.1587   7.2360   7.3207
     7.3479   7.3621   7.3762   7.3944   7.4341   7.4846   7.5353   7.5722
     7.6516   7.6618   7.6768   7.7953   7.8759   7.8843   7.9641   7.9863
     8.0239   8.0807   8.1331   8.1360   8.2077   8.2623   8.2960   8.3666

          k = 0.2500-0.5000 0.0000 ( 47752 PWs)   bands (ev):

    -6.5009  -6.4995  -6.4569  -6.4181  -6.3826  -6.3213  -6.2614  -6.1989
    -6.1107  -6.0488  -5.9327  -5.8726  -5.7302  -5.6755  -5.5106  -5.4688
    -5.2900  -5.2629  -5.0872  -5.0711  -4.9225  -4.9121  -4.8095  -4.8080
    -4.7666  -4.6656  -4.6311  -4.1780  -3.1057  -2.6742  -2.6725  -2.6718
    -2.6709  -2.5793  -2.5695  -2.5575  -2.5472  -2.5015  -2.4558  -2.3564
    -2.2941  -2.1310  -2.0718  -1.8552  -1.8069  -1.5446  -1.5129  -1.2141
    -1.2049  -0.8999  -0.8752  -0.6009  -0.5588  -0.3483  -0.3391  -0.1651
    -0.0754  -0.0450   0.1461   0.2192   0.4186   0.5231   0.7097   0.8217
     0.9679   1.0947   1.1704   1.3288   1.3556   1.4459   1.5032   1.5240
     1.5525   1.5647   1.5881   1.6369   1.6864   1.7255   1.7885   1.8022
     1.8263   1.8687   1.8911   1.9764   2.0073   2.0641   2.1067   2.1532
     2.1677   2.2014   2.2424   2.2746   2.3546   2.4154   2.4299   2.4648
     2.5269   2.5564   2.5754   2.5937   2.6106   2.6328   2.6686   2.6981
     2.7267   2.7494   2.7814   2.7856   2.9059   3.5327   3.8847   3.9651
     4.3985   4.8559   5.7702   6.1717   6.2181   6.2801   6.2868   6.2928
     6.2993   6.3419   6.3703   6.3769   6.3965   6.4233   6.4610   6.5072
     6.5886   6.6237   6.6864   6.8222   6.8926   6.9827   6.9835   7.0089
     7.0681   7.0739   7.0921   7.1274   7.1783   7.1874   7.2767   7.3041
     7.3203   7.3386   7.4146   7.4184   7.4554   7.4955   7.5019   7.5309
     7.5834   7.6121   7.6332   7.6612   7.6939   7.7813   7.8071   7.8344
     7.9194   7.9258   7.9296   7.9588   7.9820   8.0173   8.0447   8.0663

          k = 0.3750 0.3750 0.0000 ( 47732 PWs)   bands (ev):

    -6.6355  -6.5601  -6.4820  -6.3717  -6.2267  -6.0538  -5.8616  -5.6763
    -5.6657  -5.6643  -5.6054  -5.6044  -5.5611  -5.5440  -5.5165  -5.4835
    -5.4577  -5.4239  -5.4177  -5.3856  -5.3817  -5.2098  -5.0780  -5.0552
    -4.9500  -4.9372  -4.9058  -4.4702  -3.1689  -2.7560  -2.7548  -2.6969
    -2.6897  -2.5972  -2.5835  -2.5701  -2.5517  -2.4724  -2.4211  -2.3579
    -2.3461  -2.1997  -2.0916  -2.0858  -1.9176  -1.8161  -1.8048  -1.6308
    -1.6106  -1.5256  -1.2051  -0.8629  -0.7875  -0.4962  -0.4676  -0.2546
    -0.1700   0.0942   0.4231   0.5145   0.5233   0.7341   0.7998   0.8587
     1.0668   1.1296   1.2640   1.4168   1.4465   1.4603   1.6422   1.6850
     1.7931   1.8220   1.8496   1.9534   1.9556   1.9804   2.1175   2.1226
     2.1352   2.1448   2.1851   2.2039   2.2104   2.2434   2.2609   2.2921
     2.3120   2.3518   2.3973   2.4314   2.4605   2.4868   2.5243   2.5415
     2.5863   2.5984   2.6294   2.7185   2.8063   2.8411   2.8538   2.9845
     3.1030   3.2040   3.2831   3.3381   3.3737   3.5045   3.8977   3.9684
     4.1214   4.8426   5.6685   5.7612   5.8449   5.8952   5.9878   6.0554
     6.0896   6.1498   6.1968   6.2107   6.2109   6.2418   6.2639   6.2951
     6.3861   6.4343   6.4424   6.5057   6.6282   6.6701   6.7276   6.9031
     6.9319   6.9472   7.1227   7.1641   7.2197   7.3110   7.3183   7.3475
     7.4297   7.4646   7.5066   7.5089   7.5280   7.5373   7.5568   7.5669
     7.6111   7.6123   7.6251   7.6544   7.6593   7.6655   7.6696   7.6782
     7.6817   7.6953   7.7235   7.7540   7.7945   7.8142   7.8267   7.8751

          k = 0.3750-0.5000 0.0000 ( 47758 PWs)   bands (ev):

    -6.2033  -6.2031  -6.1541  -6.1295  -6.0954  -6.0466  -5.9927  -5.9463
    -5.8691  -5.8284  -5.7324  -5.6982  -5.5926  -5.5665  -5.4651  -5.4509
    -5.3724  -5.3656  -5.3319  -5.3288  -5.3163  -5.3055  -5.2860  -5.2638
    -5.2377  -5.0507  -4.9599  -4.6214  -3.1634  -2.7659  -2.7614  -2.7602
    -2.7580  -2.6102  -2.5958  -2.5855  -2.5810  -2.4110  -2.3895  -2.3568
    -2.3463  -2.1788  -2.1643  -2.1056  -2.0908  -2.0169  -1.9443  -1.7687
    -1.6624  -1.4457  -1.3415  -1.1334  -1.0420  -0.9268  -0.6941  -0.4258
     0.0895   0.1408   0.3519   0.4928   0.6223   0.8485   0.8799   0.9174
     1.0126   1.2551   1.2717   1.3005   1.4479   1.6761   1.7033   1.7425
     1.8526   1.9378   2.0873   2.1611   2.1662   2.2659   2.2702   2.2718
     2.3409   2.3448   2.4077   2.4253   2.4339   2.4701   2.4996   2.5298
     2.5436   2.5559   2.6149   2.6234   2.6647   2.6862   2.6967   2.7238
     2.7389   2.7593   2.7792   2.7971   2.8108   2.8312   2.8331   2.8484
     2.8795   2.8902   2.9249   3.1022   3.2902   3.4538   3.8912   3.9765
     4.2137   4.8676   5.8481   5.8964   5.9122   5.9253   6.0314   6.1194
     6.1688   6.2034   6.2769   6.3246   6.3650   6.4689   6.4957   6.5236
     6.5244   6.5786   6.5845   6.5882   6.6054   6.6497   6.7092   6.7339
     6.8138   6.8584   6.9985   7.0604   7.1003   7.1758   7.2090   7.2681
     7.2699   7.2965   7.3207   7.3244   7.3314   7.3329   7.3368   7.3507
     7.3977   7.4125   7.4215   7.4431   7.4657   7.4834   7.5155   7.5222
     7.5601   7.5710   7.5963   7.6255   7.6702   7.7029   7.7586   7.7834

          k =-0.5000-0.5000 0.0000 ( 47672 PWs)   bands (ev):

    -5.8130  -5.8038  -5.8037  -5.8032  -5.7979  -5.7614  -5.7446  -5.7427
    -5.7323  -5.7271  -5.6833  -5.6809  -5.6622  -5.6599  -5.6201  -5.6200
    -5.6018  -5.5920  -5.5598  -5.5538  -5.5527  -5.5417  -5.5345  -5.5217
    -5.4282  -5.2120  -5.0794  -4.7830  -3.1968  -2.8220  -2.8186  -2.8175
    -2.8067  -2.6607  -2.6428  -2.6387  -2.6065  -2.4494  -2.4104  -2.3998
    -2.3422  -2.1885  -2.1243  -2.1127  -2.0349  -1.8999  -1.8135  -1.8062
    -1.7252  -1.6225  -1.5592  -1.5533  -1.4955  -1.4749  -0.7726  -0.4287
     0.2898   0.4402   0.4430   0.4548   0.5527   0.7994   0.8020   0.8213
     0.9733   1.2313   1.2519   1.2732   1.4478   1.6924   1.7452   1.7639
     1.9294   2.1385   2.1717   2.2314   2.2431   2.3665   2.5158   2.6256
     2.6287   2.6888   2.7348   2.7629   2.7634   2.7637   2.7643   2.8007
     2.8032   2.8034   2.8055   2.8335   2.8372   2.8391   2.8437   2.8576
     2.8659   2.8705   2.8783   2.8858   2.8908   2.9137   2.9157   2.9287
     2.9402   2.9680   3.0765   3.2756   3.4094   3.5073   3.8750   3.9582
     4.1231   4.8377   5.6035   5.6239   5.6854   5.6872   5.8074   5.9237
     6.0084   6.0589   6.0761   6.1687   6.2555   6.3475   6.3709   6.4091
     6.4711   6.4951   6.5082   6.5111   6.5208   6.5226   6.5408   6.5482
     6.5578   6.5856   6.6296   6.6363   6.6584   6.7989   7.1863   7.3476
     7.3498   7.3502   7.3522   7.3834   7.4101   7.4211   7.4271   7.4570
     7.4637   7.4659   7.4668   7.4910   7.5359   7.5731   7.5896   7.6038
     7.6311   7.6313   7.6893   7.7235   7.7637   7.8274   7.8569   7.9930

          k =-0.1250 0.1250 0.0000 ( 47583 PWs)   bands (ev):

    -7.6787  -7.5950  -7.5010  -7.3677  -7.1903  -6.9705  -6.7092  -6.4078
    -6.0685  -5.6945  -5.2900  -4.8597  -4.5964  -4.5962  -4.5492  -4.5399
    -4.5211  -4.4841  -4.4673  -4.4359  -4.4169  -4.4025  -4.3731  -4.3613
    -4.3381  -4.2458  -3.9796  -3.3730  -3.0161  -2.8796  -2.8786  -2.8283
    -2.8262  -2.7897  -2.7841  -2.7597  -2.7558  -2.7444  -2.7373  -2.7210
    -2.6848  -2.6220  -2.5517  -2.5203  -2.2555  -1.7602  -1.2621  -0.7789
    -0.3182  -0.0723  -0.0012   0.0059   0.0909   0.1285   0.1356   0.2501
     0.2985   0.4415   0.5140   0.5565   0.6126   0.6614   0.7332   0.7594
     0.8841   0.8959   0.9730   1.0125   1.0510   1.0581   1.0810   1.1067
     1.1532   1.1860   1.2279   1.2494   1.2855   1.3167   1.3387   1.3396
     1.3676   1.3880   1.4607   1.4730   1.4916   1.5787   1.6253   1.6870
     1.7225   1.8697   1.8830   2.0428   2.0547   2.2491   2.3120   2.4540
     2.4895   2.7161   2.7568   2.8486   3.0402   3.0570   3.3091   3.3268
     3.3591   3.4239   3.5997   3.6031   3.6223   3.8343   3.8611   3.9562
     4.1572   4.2304   4.9646   4.9735   4.9850   5.0508   5.0552   5.1157
     5.1680   5.2842   5.3047   5.4533   5.4680   5.5026   5.5649   5.6025
     5.7008   5.7204   5.8362   5.9325   5.9588   6.0078   6.0191   6.0417
     6.1380   6.1768   6.2174   6.3427   6.4235   6.4488   6.4774   6.5188
     6.5593   6.6224   6.6801   6.6863   6.7113   6.7489   6.8277   6.9180
     6.9370   7.0082   7.0509   7.0779   7.0831   7.1190   7.2658   7.2871
     7.3098   7.3913   7.5164   7.5174   7.7532   7.8128   7.8212   7.8659

          k =-0.1250 0.2500 0.0000 ( 47619 PWs)   bands (ev):

    -7.4771  -7.3945  -7.3024  -7.1716  -6.9977  -6.7825  -6.5275  -6.2344
    -5.9067  -5.5507  -5.3964  -5.3254  -5.2565  -5.1872  -5.1292  -5.0459
    -4.9294  -4.8061  -4.7392  -4.6812  -4.5855  -4.5265  -4.5059  -4.4500
    -4.4333  -4.3367  -4.0113  -3.3823  -3.1492  -2.8437  -2.8188  -2.8041
    -2.7694  -2.7570  -2.7326  -2.6902  -2.6061  -2.4732  -2.3422  -2.2873
    -2.1356  -1.9804  -1.8984  -1.8356  -1.7391  -1.6929  -1.4750  -1.0859
    -0.7167  -0.3682  -0.0611  -0.0106  -0.0014   0.0489   0.1227   0.1630
     0.1887   0.2772   0.3273   0.3553   0.3597   0.4546   0.5392   0.5788
     0.7102   0.7408   0.7591   0.8480   0.9035   1.0075   1.0879   1.1678
     1.1869   1.2667   1.3147   1.3419   1.4181   1.4316   1.4939   1.5054
     1.5191   1.5227   1.5464   1.5698   1.5825   1.6211   1.6627   1.6844
     1.6864   1.7744   1.8265   1.8363   1.9111   1.9319   2.1350   2.1526
     2.3638   2.4241   2.5744   2.7425   2.8448   3.0312   3.1188   3.1272
     3.3434   3.3803   3.4410   3.4960   3.5224   3.5430   3.6064   4.0865
     4.2455   4.4840   5.0751   5.2374   5.2979   5.3873   5.3969   5.4457
     5.4910   5.5457   5.6585   5.7030   5.7299   5.8265   5.8395   5.9958
     6.0237   6.1000   6.1920   6.2225   6.3194   6.3662   6.4213   6.4432
     6.4547   6.5207   6.5865   6.6029   6.6706   6.7194   6.7429   6.8880
     6.9146   7.0470   7.0634   7.0831   7.1885   7.1992   7.2255   7.2775
     7.2813   7.3612   7.3847   7.4529   7.5084   7.5422   7.5885   7.6309
     7.6486   7.6816   7.7142   7.7848   7.8452   7.9206   8.0205   8.1438

          k =-0.1250 0.3750 0.0000 ( 47608 PWs)   bands (ev):

    -7.1434  -7.0634  -6.9761  -6.8504  -6.6834  -6.4783  -6.2393  -6.0957
    -6.0220  -5.9781  -5.9120  -5.8156  -5.6982  -5.6152  -5.5045  -5.3383
    -5.2707  -5.1152  -4.9460  -4.8967  -4.7060  -4.5894  -4.5308  -4.4080
    -4.3539  -4.2555  -4.0574  -3.5306  -3.0943  -3.0101  -2.8786  -2.8261
    -2.7877  -2.7509  -2.6439  -2.4941  -2.4577  -2.2918  -2.1454  -2.0589
    -1.8431  -1.7923  -1.5667  -1.4865  -1.2996  -1.1667  -1.0442  -0.8633
    -0.8087  -0.7267  -0.5138  -0.2206  -0.0506  -0.0027   0.0012   0.0484
     0.0811   0.1117   0.1464   0.2019   0.2896   0.3522   0.3982   0.5138
     0.5369   0.6296   0.6990   0.8234   0.8501   0.8620   0.9867   1.0458
     1.0761   1.1081   1.1233   1.1913   1.2580   1.3311   1.3810   1.3944
     1.4364   1.5596   1.6416   1.6472   1.7010   1.7463   1.8376   1.8854
     1.9321   1.9575   2.0080   2.0211   2.0440   2.1445   2.1872   2.2101
     2.2360   2.2810   2.3010   2.4930   2.5737   2.5993   2.8115   2.8679
     2.9175   2.9800   3.0566   3.1862   3.2267   3.4890   3.7806   4.0093
     4.6735   4.7204   4.9675   5.2928   5.4771   5.6952   5.9028   5.9193
     5.9877   6.0423   6.1529   6.2272   6.2998   6.3299   6.4166   6.4458
     6.5378   6.5708   6.6130   6.6577   6.6690   6.7155   6.7469   6.7953
     6.8583   6.8719   6.9689   7.0097   7.0681   7.0981   7.1425   7.1747
     7.3464   7.3943   7.4001   7.4869   7.5071   7.5355   7.6042   7.6467
     7.6965   7.7433   7.8224   7.8914   7.9227   7.9842   8.0406   8.0726
     8.0869   8.1573   8.2623   8.2724   8.3125   8.3387   8.3669   8.4718

          k =-0.2500 0.2500 0.0000 ( 47604 PWs)   bands (ev):

    -7.2789  -7.1974  -7.1074  -6.9799  -6.8103  -6.6014  -6.3549  -6.0734
    -5.7616  -5.4267  -5.2581  -5.2576  -5.2132  -5.1982  -5.1816  -5.1407
    -5.1201  -5.0941  -5.0625  -5.0593  -5.0165  -5.0038  -4.9828  -4.8902
    -4.7152  -4.3939  -4.2046  -3.7127  -3.0467  -2.8944  -2.7504  -2.6603
    -2.6482  -2.5331  -2.4972  -2.4378  -2.3825  -2.3201  -2.2163  -2.1419
    -2.1248  -2.0587  -1.9889  -1.9233  -1.9166  -1.8759  -1.8139  -1.5007
    -1.1835  -0.8669  -0.5606  -0.2630  -0.1302   0.0300   0.1340   0.3618
     0.3780   0.4866   0.5691   0.5692   0.5710   0.5726   0.6269   0.6281
     0.6480   0.6505   0.6829   0.7273   0.7585   0.8589   1.0644   1.0759
     1.1036   1.1649   1.3091   1.3430   1.4505   1.5069   1.6684   1.7008
     1.7181   1.7250   1.7847   1.8325   1.8613   1.8828   1.8912   1.8973
     1.9076   1.9663   1.9852   1.9926   2.0500   2.1590   2.2575   2.3155
     2.4979   2.5024   2.7045   2.7368   2.8361   2.9280   3.0953   3.1280
     3.1561   3.3478   3.3737   3.5080   3.5646   3.7193   3.7708   3.9632
     4.6034   4.6954   4.9105   5.3359   5.4441   5.5786   5.5979   5.6056
     5.6126   5.6255   5.7489   5.8234   5.8348   5.8775   5.9155   5.9582
     6.0427   6.0753   6.1051   6.1591   6.2398   6.2802   6.3407   6.3587
     6.4488   6.4857   6.5964   6.7834   6.8075   6.9438   6.9495   7.0694
     7.1792   7.2264   7.2282   7.2594   7.3261   7.3886   7.3977   7.4511
     7.5099   7.5260   7.5656   7.5977   7.6531   7.7199   7.7314   7.8378
     7.8613   7.9900   8.0769   8.1224   8.2624   8.2675   8.2856   8.4439

          k =-0.2500 0.3750 0.0000 ( 47689 PWs)   bands (ev):

    -6.9514  -6.8727  -6.7878  -6.6667  -6.5062  -6.3104  -6.0836  -5.9303
    -5.8642  -5.8330  -5.7721  -5.6892  -5.5880  -5.5218  -5.4442  -5.3173
    -5.2388  -5.1952  -5.1038  -5.0580  -5.0425  -4.9905  -4.9659  -4.9560
    -4.7058  -4.4987  -4.4341  -4.0285  -3.0148  -2.8399  -2.7277  -2.6790
    -2.6707  -2.5847  -2.5438  -2.5129  -2.4062  -2.3877  -2.3231  -2.2136
    -2.2084  -2.1881  -2.0095  -1.9459  -1.7477  -1.6710  -1.4812  -1.3697
    -1.2403  -1.1032  -1.0526  -0.7426  -0.4540  -0.2373  -0.1393   0.0392
     0.1795   0.2531   0.3773   0.3961   0.4850   0.5542   0.7184   0.8081
     0.8871   1.0102   1.0305   1.0532   1.1944   1.2034   1.3176   1.3322
     1.3459   1.3973   1.4315   1.4620   1.6416   1.6874   1.7238   1.7839
     1.8092   1.8233   1.9210   1.9410   1.9436   1.9745   2.0343   2.0378
     2.1153   2.1422   2.1643   2.2206   2.2540   2.3156   2.3338   2.3447
     2.3779   2.4105   2.4691   2.6434   2.6848   2.7462   2.9115   3.0278
     3.0339   3.0915   3.2218   3.3487   3.3718   3.4192   3.7741   3.9269
     4.6379   4.7851   5.2450   5.8520   5.9115   5.9333   5.9641   6.0141
     6.0698   6.0907   6.0954   6.1240   6.1423   6.1774   6.2157   6.2655
     6.3104   6.3503   6.3792   6.4349   6.4801   6.5024   6.5643   6.6439
     6.7178   6.7449   6.8070   6.8626   6.9840   7.0658   7.2030   7.3257
     7.3298   7.3502   7.3698   7.3960   7.4210   7.4372   7.4733   7.5866
     7.5965   7.7066   7.7307   7.7854   7.8167   7.9054   7.9178   7.9735
     7.9985   8.0548   8.1254   8.2074   8.2407   8.2686   8.3168   8.3425

          k =-0.3750 0.3750 0.0000 ( 47732 PWs)   bands (ev):

    -6.6356  -6.5601  -6.4810  -6.3694  -6.2228  -6.0471  -5.8485  -5.6662
    -5.6657  -5.6380  -5.6232  -5.6041  -5.5895  -5.5435  -5.5253  -5.4841
    -5.4654  -5.4353  -5.4141  -5.4056  -5.3824  -5.2922  -5.2113  -5.0508
    -4.9484  -4.8084  -4.7705  -4.4555  -3.1130  -2.7590  -2.7452  -2.6941
    -2.6920  -2.6036  -2.5743  -2.5538  -2.5455  -2.4549  -2.4030  -2.3515
    -2.2907  -2.1597  -2.1268  -2.0234  -1.8971  -1.8603  -1.7575  -1.6523
    -1.5925  -1.5458  -1.5372  -1.2258  -0.8996  -0.6081  -0.3816  -0.2515
    -0.0963   0.2540   0.5008   0.5187   0.6592   0.7442   0.8089   0.9611
     1.1109   1.1442   1.2646   1.4331   1.4648   1.4906   1.5258   1.6193
     1.7401   1.8013   1.8893   1.8987   1.9590   1.9749   2.1228   2.1230
     2.1839   2.1908   2.2024   2.2089   2.2111   2.2589   2.2991   2.2994
     2.3431   2.3605   2.4049   2.4159   2.4440   2.4715   2.5080   2.5256
     2.5573   2.5629   2.6831   2.7458   2.7822   2.8116   2.9408   3.0646
     3.1754   3.2630   3.3178   3.4164   3.4431   3.4533   3.8405   3.8718
     4.3530   4.8181   5.7041   5.7871   5.7917   5.8804   5.8968   5.9928
     6.0878   6.0998   6.1936   6.2093   6.2169   6.2267   6.2586   6.2736
     6.3423   6.4048   6.4083   6.5137   6.5570   6.5687   6.7004   6.7733
     6.8556   6.9180   7.0233   7.0719   7.1895   7.2418   7.3054   7.3448
     7.3461   7.4088   7.4257   7.4623   7.5210   7.5299   7.5339   7.5666
     7.5668   7.5918   7.6121   7.6125   7.6433   7.6574   7.6608   7.6686
     7.6878   7.6909   7.7019   7.7558   7.7566   7.7632   7.7744   7.8024

     the Fermi energy is     4.0707 ev

!    total energy              =   -2616.22452236 Ry
     Harris-Foulkes estimate   =   -2616.22452236 Ry
     estimated scf accuracy    <          6.1E-09 Ry

     total all-electron energy =    -32483.592961 Ry

     The total energy is the sum of the following terms:

     one-electron contribution =   -2677.07455999 Ry
     hartree contribution      =    1432.24026106 Ry
     xc contribution           =    -274.78303105 Ry
     ewald contribution        =     965.19472706 Ry
     one-center paw contrib.   =   -2061.79648277 Ry
     smearing contrib. (-TS)   =      -0.00543668 Ry

     convergence has been achieved in  20 iterations

     negative rho (up, down):  1.681E-07 0.000E+00

     Forces acting on atoms (cartesian axes, Ry/au):

     atom    1 type  1   force =     0.00000190    0.00000190   -0.00001202
     atom    2 type  1   force =    -0.00000201   -0.00000314   -0.00000429
     atom    3 type  1   force =    -0.00000314   -0.00000201   -0.00000429
     atom    4 type  1   force =    -0.00000027   -0.00000027   -0.00001116
     atom    5 type  1   force =    -0.00000043   -0.00000043   -0.00000713
     atom    6 type  1   force =    -0.00000106   -0.00000437   -0.00000196
     atom    7 type  1   force =    -0.00000437   -0.00000106   -0.00000196
     atom    8 type  1   force =     0.00000132    0.00000132   -0.00000869
     atom    9 type  1   force =    -0.00000369   -0.00000369   -0.00000394
     atom   10 type  1   force =    -0.00000247   -0.00000307   -0.00000526
     atom   11 type  1   force =    -0.00000307   -0.00000247   -0.00000526
     atom   12 type  1   force =    -0.00000242   -0.00000242    0.00000061
     atom   13 type  1   force =    -0.00000339   -0.00000339   -0.00000387
     atom   14 type  1   force =    -0.00000665    0.00000155   -0.00000738
     atom   15 type  1   force =     0.00000155   -0.00000665   -0.00000738
     atom   16 type  1   force =    -0.00000272   -0.00000272   -0.00000195
     atom   17 type  1   force =    -0.00000053   -0.00000053    0.00000137
     atom   18 type  1   force =    -0.00000042    0.00000129   -0.00000031
     atom   19 type  1   force =     0.00000129   -0.00000042   -0.00000031
     atom   20 type  1   force =    -0.00000193   -0.00000193   -0.00001630
     atom   21 type  1   force =     0.00000333    0.00000333   -0.00000337
     atom   22 type  1   force =    -0.00000009    0.00000160    0.00000537
     atom   23 type  1   force =     0.00000160   -0.00000009    0.00000537
     atom   24 type  1   force =    -0.00000507   -0.00000507   -0.00000662
     atom   25 type  1   force =     0.00000196    0.00000196    0.00001110
     atom   26 type  1   force =     0.00000203    0.00000102    0.00001495
     atom   27 type  1   force =     0.00000102    0.00000203    0.00001495
     atom   28 type  1   force =     0.00000085    0.00000085    0.00000982
     atom   29 type  1   force =     0.00000137    0.00000137    0.00001374
     atom   30 type  1   force =     0.00000436   -0.00000133    0.00001422
     atom   31 type  1   force =    -0.00000133    0.00000436    0.00001422
     atom   32 type  1   force =     0.00000169    0.00000169    0.00001359
     atom   33 type  1   force =     0.00000029    0.00000029    0.00000723
     atom   34 type  1   force =     0.00000096    0.00000065    0.00000783
     atom   35 type  1   force =     0.00000065    0.00000096    0.00000783
     atom   36 type  1   force =     0.00000214    0.00000214    0.00001768
     atom   37 type  1   force =    -0.00000072   -0.00000072    0.00000881
     atom   38 type  1   force =    -0.00000207    0.00000349    0.00000592
     atom   39 type  1   force =     0.00000349   -0.00000207    0.00000592
     atom   40 type  1   force =     0.00000300    0.00000300    0.00001134
     atom   41 type  1   force =     0.00000152    0.00000152    0.00001004
     atom   42 type  1   force =    -0.00000017    0.00000032    0.00000079
     atom   43 type  1   force =     0.00000032   -0.00000017    0.00000079
     atom   44 type  1   force =    -0.00000133   -0.00000133   -0.00000157
     atom   45 type  1   force =     0.00000210    0.00000210    0.00000483
     atom   46 type  1   force =     0.00000290   -0.00000267   -0.00000189
     atom   47 type  1   force =    -0.00000267    0.00000290   -0.00000189
     atom   48 type  1   force =    -0.00000195   -0.00000195    0.00000101
     atom   49 type  1   force =    -0.00000114   -0.00000114   -0.00001445
     atom   50 type  1   force =     0.00000260    0.00000220   -0.00001471
     atom   51 type  1   force =     0.00000220    0.00000260   -0.00001471
     atom   52 type  1   force =     0.00000234    0.00000234    0.00000326
     atom   53 type  1   force =    -0.00000594   -0.00000594   -0.00001351
     atom   54 type  1   force =     0.00000150    0.00000370   -0.00001395
     atom   55 type  1   force =     0.00000370    0.00000150   -0.00001395
     atom   56 type  1   force =     0.00000708    0.00000708   -0.00000853

     Total force =     0.000074     Total SCF correction =     0.000145
     SCF correction compared to forces is large: reduce conv_thr to get better values


     Computing stress (Cartesian axis) and pressure


     negative rho (up, down):  1.681E-07 0.000E+00
          total   stress  (Ry/bohr**3)                   (kbar)     P=    2.57
   0.00002692   0.00002900   0.00000027          3.96      4.27      0.04
   0.00002900   0.00002692   0.00000027          4.27      3.96      0.04
   0.00000027   0.00000027  -0.00000140          0.04      0.04     -0.21


     Writing output data file Si.Fd-3m_7ML.save/
 
     init_run     :     10.52s CPU     12.54s WALL (       1 calls)
     electrons    :   1979.40s CPU   2125.24s WALL (       1 calls)
     forces       :      3.17s CPU      3.52s WALL (       1 calls)
     stress       :     25.32s CPU     27.71s WALL (       1 calls)

     Called by init_run:
     wfcinit      :      7.86s CPU      8.05s WALL (       1 calls)
     potinit      :      1.30s CPU      2.26s WALL (       1 calls)
     hinit0       :      0.46s CPU      0.47s WALL (       1 calls)

     Called by electrons:
     c_bands      :   1821.96s CPU   1946.51s WALL (      21 calls)
     sum_band     :     74.30s CPU     83.80s WALL (      21 calls)
     v_of_rho     :      3.95s CPU      4.00s WALL (      21 calls)
     newd         :      0.55s CPU      0.66s WALL (      21 calls)
     PAW_pot      :      6.22s CPU     11.47s WALL (      21 calls)
     mix_rho      :     67.19s CPU     67.45s WALL (      21 calls)

     Called by c_bands:
     init_us_2    :      3.50s CPU      3.55s WALL (      90 calls)
     ccgdiagg     :   1583.32s CPU   1588.99s WALL (      43 calls)
     wfcrot       :    118.36s CPU    119.45s WALL (      41 calls)

     Called by sum_band:
     sum_band:bec :      0.03s CPU      0.03s WALL (      42 calls)
     addusdens    :      2.64s CPU      4.67s WALL (      21 calls)

     Called by *cgdiagg:
     h_psi        :    816.75s CPU    821.13s WALL (   16911 calls)
     s_psi        :    495.42s CPU    496.23s WALL (   33781 calls)
     cdiaghg      :      0.35s CPU      0.36s WALL (      41 calls)

     Called by h_psi:
     h_psi:pot    :    815.13s CPU    819.45s WALL (   16911 calls)
     h_psi:calbec :    264.55s CPU    266.24s WALL (   16911 calls)
     vloc_psi     :    298.42s CPU    301.12s WALL (   16911 calls)
     add_vuspsi   :    251.94s CPU    252.00s WALL (   16911 calls)
     hs_1psi      :    960.51s CPU    964.20s WALL (   16870 calls)
     s_1psi       :    495.91s CPU    496.72s WALL (   16870 calls)

     General routines
     calbec       :    524.74s CPU    527.27s WALL (   33833 calls)
     fft          :      3.38s CPU      3.41s WALL (     257 calls)
     ffts         :     36.04s CPU     36.38s WALL (    2764 calls)
     fftw         :    277.53s CPU    280.49s WALL (   54796 calls)
 
     Parallel routines
     fft_scatt_xy :     65.40s CPU     66.00s WALL (   57817 calls)
     fft_scatt_yz :     83.14s CPU     84.95s WALL (   57817 calls)
 
     PWSCF        :  33m39.29s CPU  40m 6.81s WALL

 
   This run was terminated on:  14:27:31   5Sep2021            

=------------------------------------------------------------------------------=
   JOB DONE.
=------------------------------------------------------------------------------=
Note: The following floating-point exceptions are signalling: IEEE_UNDERFLOW_FLAG IEEE_DENORMAL
Note: The following floating-point exceptions are signalling:Note: The following floating-point exceptions are signalling: IEEE_UNDERFLOW_FLAG IEEE_DENORMAL
 IEEE_UNDERFLOW_FLAG IEEE_DENORMAL
Note: The following floating-point exceptions are signalling: IEEE_UNDERFLOW_FLAG IEEE_DENORMAL
