
     Program PWSCF v.6.4.1 starts on  3Sep2021 at 15:57:43 

     This program is part of the open-source Quantum ESPRESSO suite
     for quantum simulation of materials; please cite
         "P. Giannozzi et al., J. Phys.:Condens. Matter 21 395502 (2009);
         "P. Giannozzi et al., J. Phys.:Condens. Matter 29 465901 (2017);
          URL http://www.quantum-espresso.org", 
     in publications or presentations arising from this work. More details at
     http://www.quantum-espresso.org/quote

     Parallel version (MPI), running on    60 processors

     MPI processes distributed on    15 nodes
     K-points division:     npool     =      15
     R & G space division:  proc/nbgrp/npool/nimage =       4
     Reading input from Si.Fd-3m_3ML.scf.in

     Current dimensions of program PWSCF are:
     Max number of different atomic species (ntypx) = 10
     Max number of k-points (npk) =  40000
     Max angular momentum in pseudopotentials (lmaxx) =  3
               file Si.pbe-nl-kjpaw_psl.1.0.0.UPF: wavefunction(s)  3S 3P renormalized

     Subspace diagonalization in iterative solution of the eigenvalue problem:
     a serial algorithm will be used

 
     Parallelization info
     --------------------
     sticks:   dense  smooth     PW     G-vecs:    dense   smooth      PW
     Min         369     369    106                48307    48307    7607
     Max         371     371    108                48311    48311    7614
     Sum        1481    1481    429               193237   193237   30447
 

     Title: 
     Relaxation of atomic positions for single monolayer slab of Si using PBE   


     bravais-lattice index     =            0
     lattice parameter (alat)  =      10.2787  a.u.
     unit-cell volume          =    4941.0794 (a.u.)^3
     number of atoms/cell      =           24
     number of atomic types    =            1
     number of electrons       =        96.00
     number of Kohn-Sham states=           72
     kinetic-energy cutoff     =      45.0000  Ry
     charge density cutoff     =     175.0000  Ry
     convergence threshold     =      1.0E-08
     mixing beta               =       0.5000
     number of iterations used =            8  local-TF  mixing
     Exchange-correlation      = SLA PW PBX PBC ( 1  4  3  4 0 0)

     celldm(1)=  10.278667  celldm(2)=   0.000000  celldm(3)=   0.000000
     celldm(4)=   0.000000  celldm(5)=   0.000000  celldm(6)=   0.000000

     crystal axes: (cart. coord. in units of alat)
               a(1) = (   1.000000   0.000000   0.000000 )  
               a(2) = (   0.000000   1.000000   0.000000 )  
               a(3) = (   0.000000   0.000000   4.550000 )  

     reciprocal axes: (cart. coord. in units 2 pi/alat)
               b(1) = (  1.000000  0.000000  0.000000 )  
               b(2) = (  0.000000  1.000000  0.000000 )  
               b(3) = (  0.000000  0.000000  0.219780 )  


     PseudoPot. # 1 for Si read from file:
     /share/pseudo/Si.pbe-nl-kjpaw_psl.1.0.0.UPF
     MD5 check sum: 3686bff6734aab787fb18a3c8374d51f
     Pseudo is Projector augmented-wave + core cor, Zval =  4.0
     Generated using "atomic" code by A. Dal Corso v.6.3
     Shape of augmentation charge: PSQ
     Using radial grid of 1141 points,  4 beta functions with: 
                l(1) =   0
                l(2) =   0
                l(3) =   1
                l(4) =   1
     Q(r) pseudized with 0 coefficients 


     atomic species   valence    mass     pseudopotential
        Si             4.00    28.08600     Si( 1.00)

     No symmetry found



   Cartesian axes

     site n.     atom                  positions (alat units)
         1           Si  tau(   1) = (   0.0756124  -0.0716191   1.2278804  )
         2           Si  tau(   2) = (  -0.0197939   0.4950089   1.7462399  )
         3           Si  tau(   3) = (   0.5089471   0.0237483   1.7462240  )
         4           Si  tau(   4) = (   0.3651381   0.6388592   1.3604723  )
         5           Si  tau(   5) = (   0.2352455   0.2451697   1.4886789  )
         6           Si  tau(   6) = (   0.2456623   0.7582957   1.9814600  )
         7           Si  tau(   7) = (   0.7476655   0.2562766   2.0192249  )
         8           Si  tau(   8) = (   0.7588420   0.7687287   1.4886726  )
         9           Si  tau(   9) = (   0.0026828   0.0012771   2.2551390  )
        10           Si  tau(  10) = (  -0.0063043   0.5057012   2.7567705  )
        11           Si  tau(  11) = (   0.4982167   0.0102249   2.7567821  )
        12           Si  tau(  12) = (   0.4904547   0.5135043   2.2492048  )
        13           Si  tau(  13) = (   0.2482640   0.2602507   2.5044716  )
        14           Si  tau(  14) = (   0.2391985   0.7647100   3.0061214  )
        15           Si  tau(  15) = (   0.7514903   0.2524297   3.0119659  )
        16           Si  tau(  16) = (   0.7436987   0.7556966   2.5044721  )
        17           Si  tau(  17) = (  -0.0037627   0.0076769   3.2797883  )
        18           Si  tau(  18) = (   0.0066824   0.5206890   3.7724484  )
        19           Si  tau(  19) = (   0.4830828  -0.0028500   3.7724593  )
        20           Si  tau(  20) = (   0.4942673   0.5096608   3.2418716  )
        21           Si  tau(  21) = (   0.2617739   0.2709410   3.5148865  )
        22           Si  tau(  22) = (   0.1663690   0.8374215   4.0333201  )
        23           Si  tau(  23) = (   0.8768478   0.1269174   3.9006506  )
        24           Si  tau(  24) = (   0.7329760   0.7421367   3.5149065  )

     number of k points=    34  gaussian smearing, width (Ry)=  0.0100
                       cart. coord. in units 2pi/alat
        k(    1) = (   0.0000000   0.0000000   0.0000000), wk =   0.0312500
        k(    2) = (   0.0000000   0.1250000   0.0000000), wk =   0.0625000
        k(    3) = (   0.0000000   0.2500000   0.0000000), wk =   0.0625000
        k(    4) = (   0.0000000   0.3750000   0.0000000), wk =   0.0625000
        k(    5) = (   0.0000000  -0.5000000   0.0000000), wk =   0.0312500
        k(    6) = (   0.1250000   0.1250000   0.0000000), wk =   0.0625000
        k(    7) = (   0.1250000   0.2500000   0.0000000), wk =   0.0625000
        k(    8) = (   0.1250000   0.3750000   0.0000000), wk =   0.0625000
        k(    9) = (   0.1250000  -0.5000000   0.0000000), wk =   0.0625000
        k(   10) = (   0.2500000   0.2500000   0.0000000), wk =   0.0625000
        k(   11) = (   0.2500000   0.3750000   0.0000000), wk =   0.0625000
        k(   12) = (   0.2500000  -0.5000000   0.0000000), wk =   0.0625000
        k(   13) = (   0.3750000   0.3750000   0.0000000), wk =   0.0625000
        k(   14) = (   0.3750000  -0.5000000   0.0000000), wk =   0.0625000
        k(   15) = (  -0.5000000  -0.5000000   0.0000000), wk =   0.0312500
        k(   16) = (   0.1250000   0.0000000   0.0000000), wk =   0.0625000
        k(   17) = (   0.2500000   0.0000000   0.0000000), wk =   0.0625000
        k(   18) = (   0.3750000   0.0000000   0.0000000), wk =   0.0625000
        k(   19) = (  -0.5000000   0.0000000   0.0000000), wk =   0.0312500
        k(   20) = (  -0.1250000   0.1250000   0.0000000), wk =   0.0625000
        k(   21) = (  -0.1250000   0.2500000   0.0000000), wk =   0.0625000
        k(   22) = (   0.2500000   0.1250000   0.0000000), wk =   0.0625000
        k(   23) = (   0.2500000  -0.1250000   0.0000000), wk =   0.0625000
        k(   24) = (  -0.1250000   0.3750000   0.0000000), wk =   0.0625000
        k(   25) = (   0.3750000   0.1250000   0.0000000), wk =   0.0625000
        k(   26) = (   0.3750000  -0.1250000   0.0000000), wk =   0.0625000
        k(   27) = (  -0.5000000   0.1250000   0.0000000), wk =   0.0625000
        k(   28) = (  -0.2500000   0.2500000   0.0000000), wk =   0.0625000
        k(   29) = (  -0.2500000   0.3750000   0.0000000), wk =   0.0625000
        k(   30) = (   0.3750000   0.2500000   0.0000000), wk =   0.0625000
        k(   31) = (   0.3750000  -0.2500000   0.0000000), wk =   0.0625000
        k(   32) = (  -0.5000000   0.2500000   0.0000000), wk =   0.0625000
        k(   33) = (  -0.3750000   0.3750000   0.0000000), wk =   0.0625000
        k(   34) = (  -0.5000000   0.3750000   0.0000000), wk =   0.0625000

     Dense  grid:   193237 G-vectors     FFT dimensions: (  45,  45, 200)

     Estimated max dynamical RAM per process >      94.33 MB

     Estimated total dynamical RAM >       5.53 GB

     Initial potential from superposition of free atoms

     starting charge   95.98658, renormalised to   96.00000

     negative rho (up, down):  8.091E-06 0.000E+00
     Starting wfcs are   96 randomized atomic wfcs
     Checking if some PAW data can be deallocated... 

     total cpu time spent up to now is        4.3 secs

     Self-consistent Calculation

     iteration #  1     ecut=    45.00 Ry     beta= 0.50
     CG style diagonalization
     ethr =  1.00E-02,  avg # of iterations =  3.4

     Threshold (ethr) on eigenvalues was too large:
     Diagonalizing with lowered threshold

     CG style diagonalization
     ethr =  8.15E-04,  avg # of iterations =  2.2

     total cpu time spent up to now is       42.5 secs

     total energy              =   -1121.14279689 Ry
     Harris-Foulkes estimate   =   -1121.24330993 Ry
     estimated scf accuracy    <       0.78494292 Ry

     iteration #  2     ecut=    45.00 Ry     beta= 0.50
     CG style diagonalization
     ethr =  8.18E-04,  avg # of iterations =  3.0

     total cpu time spent up to now is       57.9 secs

     total energy              =   -1121.06211658 Ry
     Harris-Foulkes estimate   =   -1121.16417252 Ry
     estimated scf accuracy    <       0.41970106 Ry

     iteration #  3     ecut=    45.00 Ry     beta= 0.50
     CG style diagonalization
     ethr =  4.37E-04,  avg # of iterations =  3.0

     total cpu time spent up to now is       73.1 secs

     total energy              =   -1121.07928787 Ry
     Harris-Foulkes estimate   =   -1121.08581892 Ry
     estimated scf accuracy    <       0.05792301 Ry

     iteration #  4     ecut=    45.00 Ry     beta= 0.50
     CG style diagonalization
     c_bands:  1 eigenvalues not converged
     ethr =  6.03E-05,  avg # of iterations =  4.6

     total cpu time spent up to now is      101.2 secs

     total energy              =   -1121.08828622 Ry
     Harris-Foulkes estimate   =   -1121.08963681 Ry
     estimated scf accuracy    <       0.02203842 Ry

     iteration #  5     ecut=    45.00 Ry     beta= 0.50
     CG style diagonalization
     c_bands:  1 eigenvalues not converged
     ethr =  2.30E-05,  avg # of iterations =  3.4

     total cpu time spent up to now is      119.0 secs

     total energy              =   -1121.08612678 Ry
     Harris-Foulkes estimate   =   -1121.08919170 Ry
     estimated scf accuracy    <       0.01581303 Ry

     iteration #  6     ecut=    45.00 Ry     beta= 0.50
     CG style diagonalization
     c_bands:  1 eigenvalues not converged
     c_bands:  1 eigenvalues not converged
     ethr =  1.65E-05,  avg # of iterations =  3.2

     total cpu time spent up to now is      135.8 secs

     total energy              =   -1121.08694828 Ry
     Harris-Foulkes estimate   =   -1121.08692453 Ry
     estimated scf accuracy    <       0.00505347 Ry

     iteration #  7     ecut=    45.00 Ry     beta= 0.50
     CG style diagonalization
     c_bands:  1 eigenvalues not converged
     c_bands:  1 eigenvalues not converged
     ethr =  5.26E-06,  avg # of iterations =  4.0

     negative rho (up, down):  8.999E-05 0.000E+00

     total cpu time spent up to now is      160.3 secs

     total energy              =   -1121.08732787 Ry
     Harris-Foulkes estimate   =   -1121.08740832 Ry
     estimated scf accuracy    <       0.00086702 Ry

     iteration #  8     ecut=    45.00 Ry     beta= 0.50
     CG style diagonalization
     c_bands:  1 eigenvalues not converged
     c_bands:  1 eigenvalues not converged
     ethr =  9.03E-07,  avg # of iterations =  4.6

     total cpu time spent up to now is      187.3 secs

     total energy              =   -1121.08754874 Ry
     Harris-Foulkes estimate   =   -1121.08764937 Ry
     estimated scf accuracy    <       0.00053408 Ry

     iteration #  9     ecut=    45.00 Ry     beta= 0.50
     CG style diagonalization
     c_bands:  1 eigenvalues not converged
     c_bands:  1 eigenvalues not converged
     ethr =  5.56E-07,  avg # of iterations =  3.1

     negative rho (up, down):  6.230E-07 0.000E+00

     total cpu time spent up to now is      207.0 secs

     total energy              =   -1121.08761003 Ry
     Harris-Foulkes estimate   =   -1121.08759666 Ry
     estimated scf accuracy    <       0.00006931 Ry

     iteration # 10     ecut=    45.00 Ry     beta= 0.50
     CG style diagonalization
     ethr =  7.22E-08,  avg # of iterations =  3.7

     total cpu time spent up to now is      227.4 secs

     total energy              =   -1121.08762661 Ry
     Harris-Foulkes estimate   =   -1121.08763005 Ry
     estimated scf accuracy    <       0.00001141 Ry

     iteration # 11     ecut=    45.00 Ry     beta= 0.50
     CG style diagonalization
     ethr =  1.19E-08,  avg # of iterations =  3.2

     negative rho (up, down):  2.177E-06 0.000E+00

     total cpu time spent up to now is      247.6 secs

     total energy              =   -1121.08762802 Ry
     Harris-Foulkes estimate   =   -1121.08762819 Ry
     estimated scf accuracy    <       0.00000232 Ry

     iteration # 12     ecut=    45.00 Ry     beta= 0.50
     CG style diagonalization
     ethr =  2.42E-09,  avg # of iterations =  3.6

     negative rho (up, down):  5.750E-07 0.000E+00

     total cpu time spent up to now is      269.5 secs

     total energy              =   -1121.08762860 Ry
     Harris-Foulkes estimate   =   -1121.08762863 Ry
     estimated scf accuracy    <       0.00000027 Ry

     iteration # 13     ecut=    45.00 Ry     beta= 0.50
     CG style diagonalization
     ethr =  2.81E-10,  avg # of iterations =  3.5

     negative rho (up, down):  3.739E-07 0.000E+00

     total cpu time spent up to now is      289.6 secs

     total energy              =   -1121.08762861 Ry
     Harris-Foulkes estimate   =   -1121.08762866 Ry
     estimated scf accuracy    <       0.00000021 Ry

     iteration # 14     ecut=    45.00 Ry     beta= 0.50
     CG style diagonalization
     ethr =  2.23E-10,  avg # of iterations =  3.0

     negative rho (up, down):  7.531E-07 0.000E+00

     total cpu time spent up to now is      307.2 secs

     total energy              =   -1121.08762860 Ry
     Harris-Foulkes estimate   =   -1121.08762862 Ry
     estimated scf accuracy    <       0.00000006 Ry

     iteration # 15     ecut=    45.00 Ry     beta= 0.50
     CG style diagonalization
     ethr =  6.04E-11,  avg # of iterations =  3.3

     negative rho (up, down):  5.951E-07 0.000E+00

     total cpu time spent up to now is      324.0 secs

     End of self-consistent calculation

          k = 0.0000 0.0000 0.0000 ( 25191 PWs)   bands (ev):

    -9.3927  -9.1896  -8.7373  -7.9978  -7.0301  -5.9482  -5.3948  -5.3846
    -5.2982  -5.2915  -5.2673  -5.2405  -5.2318  -5.2092  -5.0760  -5.0632
    -4.8134  -4.0324  -3.8853  -3.4819  -2.4516  -1.5860  -1.5774  -1.4835
    -1.2926  -1.1076  -0.9576  -0.9535  -0.7780  -0.7624  -0.2632  -0.2018
    -0.1856  -0.1392  -0.0795   0.1072   0.1260   0.4532   0.5393   0.6152
     0.9817   1.1092   1.2458   1.5716   1.7799   1.9593   2.1686   2.1758
     2.2089   2.3679   3.1878   3.2139   3.5589   3.5998   3.6463   3.7107
     3.7576   3.9920   4.1776   4.5024   4.6174   4.6210   4.7174   4.8321
     4.9985   5.2212   5.2423   5.4111   5.6635   5.8942   6.1400   6.2433

          k = 0.0000 0.1250 0.0000 ( 25148 PWs)   bands (ev):

    -9.3254  -9.1239  -8.6744  -7.9413  -6.9890  -6.1981  -6.0711  -5.8860
    -5.7889  -5.5605  -5.3693  -5.1885  -4.9783  -4.8272  -4.7290  -4.5121
    -4.3774  -3.9956  -3.7651  -3.3917  -2.5115  -1.7686  -1.6096  -1.4983
    -1.2912  -1.1587  -0.9063  -0.7865  -0.6831  -0.6554  -0.4193  -0.3844
    -0.3507  -0.1134  -0.0666  -0.0413   0.0319   0.3553   0.4097   0.5078
     0.9600   0.9989   1.1794   1.5063   1.6794   1.8365   1.9887   2.1569
     2.4093   2.5225   3.5060   3.5766   3.5966   3.8170   3.8313   3.9461
     4.0388   4.2295   4.3191   4.4993   4.5794   4.7668   5.0051   5.0594
     5.1352   5.2501   5.3482   5.4705   5.6840   5.8047   6.0067   6.2642

          k = 0.0000 0.2500 0.0000 ( 25136 PWs)   bands (ev):

    -9.1247  -8.9290  -8.4901  -7.7832  -7.0401  -6.8990  -6.7060  -6.4204
    -6.0353  -5.7296  -5.5496  -5.1616  -4.8895  -4.7055  -4.4697  -4.0299
    -3.9597  -3.5159  -3.4266  -3.1146  -2.5685  -1.9289  -1.7301  -1.6387
    -1.4046  -1.1961  -0.9182  -0.8329  -0.8077  -0.7135  -0.6378  -0.4096
    -0.3121  -0.2621  -0.2069  -0.1078   0.0932   0.1723   0.2231   0.3764
     0.7419   0.8658   1.0698   1.2230   1.4526   1.7896   1.8530   2.0330
     2.7493   2.8154   3.5782   3.9760   4.1398   4.3187   4.4478   4.4796
     4.5266   4.6727   4.8062   4.9144   4.9699   5.1348   5.1977   5.4044
     5.4968   5.5215   5.6849   5.7089   5.8565   6.0595   6.1424   6.3858

          k = 0.0000 0.3750 0.0000 ( 25124 PWs)   bands (ev):

    -8.7955  -8.6169  -8.2124  -7.7465  -7.5918  -7.3585  -7.0581  -6.5870
    -6.4197  -5.8278  -5.5946  -5.1796  -4.8390  -4.5530  -4.3062  -3.9286
    -3.7390  -3.3265  -3.0243  -2.6407  -2.3346  -2.0018  -1.7463  -1.6860
    -1.5019  -1.3122  -1.2368  -1.2076  -1.0734  -0.9102  -0.7375  -0.6373
    -0.5299  -0.3744  -0.1353   0.0563   0.1332   0.2498   0.3515   0.5263
     0.6062   0.7628   0.7841   0.9180   1.3835   1.5313   1.9467   2.0414
     3.0362   3.1394   3.6944   4.0149   4.3466   4.5054   4.8178   4.9182
     4.9326   5.1586   5.4286   5.5266   5.6573   5.6777   5.7351   5.8244
     5.9083   5.9420   5.9642   6.1513   6.3280   6.4405   6.5287   6.6105

          k = 0.0000-0.5000 0.0000 ( 25114 PWs)   bands (ev):

    -8.4058  -8.3640  -8.2142  -8.0529  -7.7804  -7.5328  -7.0956  -6.8537
    -6.3028  -6.0454  -5.5101  -5.2159  -4.8157  -4.4811  -4.2510  -3.8904
    -3.6674  -3.2885  -2.9393  -2.5475  -2.1430  -1.7722  -1.6781  -1.5987
    -1.5754  -1.5101  -1.3354  -1.3084  -1.2125  -0.9317  -0.8972  -0.8879
    -0.6297  -0.4229  -0.1846  -0.1037   0.1094   0.4014   0.4168   0.6691
     0.6789   0.7365   0.9406   0.9472   1.1511   1.2232   2.0335   2.0955
     3.1922   3.3018   3.7972   3.9761   4.5847   4.5893   4.6150   5.0297
     5.1883   5.1983   5.2851   5.4572   5.7073   5.9214   6.0007   6.1660
     6.2057   6.2439   6.3658   6.6087   6.6417   6.9198   6.9658   6.9878

          k = 0.1250 0.1250 0.0000 ( 25157 PWs)   bands (ev):

    -9.2582  -9.0583  -8.6129  -7.8886  -6.9557  -6.2333  -6.1617  -6.0813
    -6.0732  -5.7972  -5.5759  -5.5599  -4.9158  -4.5193  -4.4782  -4.3914
    -4.3729  -3.7931  -3.3225  -3.2679  -2.7725  -1.8792  -1.5180  -1.4628
    -1.3087  -1.1857  -0.9749  -0.9150  -0.7526  -0.6821  -0.5062  -0.4325
    -0.3217  -0.1656  -0.0661  -0.0279   0.1103   0.2514   0.2971   0.6970
     0.8085   0.9493   1.2002   1.3279   1.6829   1.9239   2.0773   2.0878
     2.5446   2.5486   3.4151   3.6395   3.7913   3.8511   3.8806   3.9874
     4.1929   4.5043   4.5145   4.6055   4.9644   5.0056   5.0383   5.0847
     5.1415   5.2183   5.4117   5.5278   5.8532   5.8842   6.1938   6.2865

          k = 0.1250 0.2500 0.0000 ( 25179 PWs)   bands (ev):

    -9.0582  -8.8641  -8.4310  -7.7372  -7.0068  -6.8713  -6.6730  -6.4339
    -6.1830  -5.8527  -5.8115  -5.6356  -5.0485  -4.4467  -4.3287  -4.1047
    -3.8485  -3.5566  -3.2301  -2.8854  -2.7160  -2.1166  -1.5357  -1.4998
    -1.4141  -1.2714  -1.1685  -1.0347  -0.9393  -0.6199  -0.4876  -0.4358
    -0.2012  -0.1922  -0.1680  -0.0162   0.0673   0.2259   0.3764   0.5162
     0.6123   0.8590   1.1125   1.2473   1.6974   1.7331   1.8799   2.0385
     2.7832   2.8915   3.8611   3.9060   3.9813   4.1299   4.2093   4.2817
     4.6112   4.7463   4.8133   4.9544   5.1463   5.2479   5.3045   5.4678
     5.5808   5.6086   5.7690   5.8497   6.0036   6.2295   6.2977   6.4471

          k = 0.1250 0.3750 0.0000 ( 25168 PWs)   bands (ev):

    -8.7302  -8.5530  -8.1569  -7.6983  -7.5465  -7.3167  -7.0267  -6.5807
    -6.4270  -5.9509  -5.8428  -5.4844  -5.1433  -4.4377  -4.2334  -4.0484
    -3.5774  -3.5264  -2.9825  -2.8264  -2.4315  -2.1379  -1.6544  -1.5832
    -1.5265  -1.4246  -1.1971  -1.0214  -0.9339  -0.7419  -0.6843  -0.4396
    -0.3326  -0.2181  -0.1239   0.0292   0.2107   0.2612   0.3570   0.5273
     0.6589   0.7590   0.9666   1.1817   1.3596   1.4677   1.9546   2.0053
     3.1200   3.2171   3.9884   4.1238   4.3644   4.5625   4.7258   4.9159
     4.9262   5.0140   5.2330   5.3042   5.3401   5.4722   5.6502   5.6832
     5.8171   5.9923   6.1352   6.3022   6.3332   6.4083   6.4616   6.6197

          k = 0.1250-0.5000 0.0000 ( 25190 PWs)   bands (ev):

    -8.3420  -8.3007  -8.1549  -7.9971  -7.7297  -7.4928  -7.0653  -6.8497
    -6.3317  -6.1424  -5.7899  -5.2728  -5.1879  -4.4064  -4.3143  -3.9044
    -3.7906  -3.2865  -3.1637  -2.6887  -2.3955  -1.9904  -1.6542  -1.6262
    -1.5674  -1.3439  -1.2604  -1.2471  -0.9883  -0.8144  -0.7341  -0.5040
    -0.3409  -0.1928  -0.0649   0.1159   0.2423   0.3576   0.4188   0.6811
     0.7552   0.8161   0.9010   0.9424   1.1671   1.2550   2.0030   2.0698
     3.3314   3.3484   3.9942   4.2128   4.5393   4.5812   4.7160   4.9186
     5.1095   5.2223   5.3150   5.4421   5.7985   5.8608   5.9606   6.0630
     6.1677   6.1856   6.2478   6.2718   6.4090   6.4527   6.5157   6.6959

          k = 0.2500 0.2500 0.0000 ( 25180 PWs)   bands (ev):

    -8.8607  -8.6724  -8.2544  -7.5988  -6.9706  -6.8560  -6.7587  -6.7022
    -6.5535  -6.1892  -6.1661  -5.6746  -5.3858  -4.4257  -4.1834  -3.9773
    -3.8014  -3.7152  -3.3396  -2.6588  -2.4972  -2.4573  -1.8096  -1.6248
    -1.2072  -1.0750  -1.0593  -0.9909  -0.8760  -0.8224  -0.5481  -0.3324
    -0.2769  -0.0778   0.0943   0.1407   0.2084   0.3603   0.4854   0.6552
     0.6813   1.0484   1.2507   1.2929   1.5032   1.8781   1.9098   1.9548
     2.9786   3.0969   3.8292   4.0337   4.0699   4.2406   4.3429   4.4552
     4.5043   4.7467   4.8716   5.0581   5.0829   5.3879   5.6138   5.6280
     5.6481   5.8793   5.9537   6.0813   6.1441   6.5340   6.6041   6.6174

          k = 0.2500 0.3750 0.0000 ( 25213 PWs)   bands (ev):

    -8.5375  -8.3656  -7.9887  -7.5531  -7.4137  -7.2124  -6.9806  -6.7257
    -6.5077  -6.3322  -6.3130  -5.7189  -5.6655  -4.3942  -4.1695  -4.0665
    -3.9185  -3.6742  -3.2203  -3.1242  -2.5173  -2.2366  -2.0418  -1.6645
    -1.5156  -1.2025  -0.9427  -0.7560  -0.5455  -0.4262  -0.3808  -0.2631
    -0.0932  -0.0468   0.1667   0.3085   0.3962   0.4487   0.5621   0.6947
     0.8106   0.9730   1.0931   1.3056   1.4958   1.6148   1.9056   1.9953
     3.2998   3.3299   4.2075   4.2407   4.4107   4.5834   4.6674   4.6871
     4.7983   4.8943   4.9674   5.2939   5.4306   5.4919   5.5785   5.6996
     5.7289   5.8662   6.0364   6.1715   6.3092   6.3245   6.3896   6.4678

          k = 0.2500-0.5000 0.0000 ( 25212 PWs)   bands (ev):

    -8.1537  -8.1140  -7.9805  -7.8350  -7.5857  -7.3864  -7.0004  -6.8667
    -6.5172  -6.3579  -6.2474  -5.7438  -5.7315  -4.2235  -4.2006  -4.1473
    -3.9814  -3.6674  -3.4323  -2.9903  -2.7727  -2.3779  -1.9868  -1.7244
    -1.4809  -1.2872  -0.8724  -0.7244  -0.4474  -0.4043  -0.1521  -0.0688
     0.0310   0.1092   0.2247   0.3669   0.4373   0.5598   0.6380   0.7678
     0.8539   0.8903   0.9744   1.0630   1.3800   1.4743   1.9961   2.0437
     3.4422   3.4748   4.4062   4.4813   4.6256   4.6684   4.7506   4.8237
     5.0990   5.1486   5.2416   5.4086   5.4550   5.5665   5.6379   5.7142
     5.7366   5.8430   5.9007   6.0565   6.1678   6.2911   6.3600   6.3725

          k = 0.3750 0.3750 0.0000 ( 25250 PWs)   bands (ev):

    -8.2235  -8.0675  -7.7396  -7.4105  -7.2796  -7.1659  -7.1531  -7.0145
    -6.6543  -6.5723  -6.5533  -6.0543  -6.0539  -4.2534  -4.2058  -4.1017
    -4.0951  -3.7808  -3.4996  -3.4622  -2.8815  -2.3004  -2.1656  -1.9132
    -1.5839  -0.9132  -0.8193  -0.7596  -0.3584  -0.0234   0.0368   0.1249
     0.2734   0.4334   0.4654   0.4978   0.5886   0.6238   0.7204   0.7698
     1.0160   1.0673   1.1878   1.4672   1.7421   1.7762   1.9717   2.0166
     3.4720   3.4805   4.0279   4.0973   4.4064   4.4569   4.6466   4.7954
     4.8241   4.9661   5.1436   5.4200   5.4968   5.5683   5.6897   5.8069
     5.8405   5.9432   5.9513   5.9856   6.0320   6.0644   6.1255   6.2584

          k = 0.3750-0.5000 0.0000 ( 25258 PWs)   bands (ev):

    -7.8547  -7.8177  -7.7082  -7.5878  -7.3885  -7.2713  -7.0369  -7.0061
    -6.9328  -6.6023  -6.5818  -6.1919  -6.1757  -4.2338  -4.2062  -4.1168
    -4.0557  -3.7923  -3.6776  -3.4232  -3.1026  -2.8013  -2.1287  -1.9360
    -1.3767  -0.9115  -0.8781  -0.6407  -0.3056   0.0612   0.1059   0.2882
     0.3747   0.4816   0.6305   0.7798   0.7994   0.8689   0.9001   1.0230
     1.0729   1.0761   1.1961   1.2006   1.8552   1.8612   1.9802   2.0487
     3.4825   3.5689   4.1957   4.2733   4.3559   4.4579   4.6286   4.7711
     4.9141   4.9695   5.1187   5.2330   5.3641   5.5058   5.5381   5.5795
     5.6920   5.7573   5.8109   5.8369   5.8868   5.9482   6.0464   6.2208

          k =-0.5000-0.5000 0.0000 ( 25256 PWs)   bands (ev):

    -7.5594  -7.5529  -7.4076  -7.3763  -7.3453  -7.2895  -7.2801  -7.2397
    -7.2187  -6.7036  -6.6914  -6.3652  -6.3473  -4.2611  -4.2512  -4.1278
    -4.1186  -3.7018  -3.6400  -3.4194  -3.3753  -3.1698  -2.1367  -1.9273
    -1.3710  -0.9946  -0.7271  -0.5906  -0.5013   0.0624   0.2409   0.5661
     0.5822   0.6063   0.6704   0.9622   1.0096   1.1793   1.1960   1.1985
     1.2341   1.2570   1.2583   1.2612   1.9431   2.0225   2.0918   2.1137
     3.4279   3.6468   3.9989   4.1148   4.1313   4.2874   4.3175   4.7486
     4.7573   4.8315   4.8670   5.0371   5.0408   5.4514   5.4604   5.6478
     5.6811   5.8436   5.9333   5.9976   6.0225   6.0444   6.0540   6.2385

          k = 0.1250 0.0000 0.0000 ( 25148 PWs)   bands (ev):

    -9.3254  -9.1239  -8.6744  -7.9413  -6.9890  -6.1982  -6.0710  -5.8861
    -5.7889  -5.5606  -5.3693  -5.1885  -4.9783  -4.8272  -4.7289  -4.5120
    -4.3774  -3.9956  -3.7651  -3.3917  -2.5115  -1.7685  -1.6097  -1.4983
    -1.2911  -1.1587  -0.9063  -0.7865  -0.6832  -0.6554  -0.4192  -0.3845
    -0.3506  -0.1134  -0.0666  -0.0414   0.0319   0.3552   0.4097   0.5078
     0.9598   0.9991   1.1794   1.5065   1.6793   1.8363   1.9890   2.1567
     2.4093   2.5224   3.5060   3.5765   3.5966   3.8172   3.8312   3.9462
     4.0388   4.2294   4.3191   4.4993   4.5793   4.7669   5.0050   5.0592
     5.1353   5.2504   5.3481   5.4706   5.6840   5.8046   6.0067   6.2630

          k = 0.2500 0.0000 0.0000 ( 25136 PWs)   bands (ev):

    -9.1247  -8.9290  -8.4901  -7.7832  -7.0401  -6.8991  -6.7059  -6.4205
    -6.0353  -5.7297  -5.5497  -5.1616  -4.8896  -4.7055  -4.4696  -4.0298
    -3.9596  -3.5159  -3.4265  -3.1146  -2.5685  -1.9289  -1.7301  -1.6387
    -1.4044  -1.1962  -0.9182  -0.8329  -0.8077  -0.7135  -0.6378  -0.4096
    -0.3122  -0.2621  -0.2068  -0.1079   0.0932   0.1723   0.2231   0.3764
     0.7419   0.8659   1.0698   1.2229   1.4526   1.7898   1.8530   2.0327
     2.7493   2.8155   3.5780   3.9762   4.1398   4.3186   4.4478   4.4797
     4.5266   4.6727   4.8062   4.9145   4.9697   5.1350   5.1976   5.4045
     5.4969   5.5214   5.6848   5.7091   5.8564   6.0595   6.1424   6.3857

          k = 0.3750 0.0000 0.0000 ( 25124 PWs)   bands (ev):

    -8.7955  -8.6169  -8.2124  -7.7465  -7.5917  -7.3587  -7.0580  -6.5872
    -6.4196  -5.8279  -5.5946  -5.1796  -4.8391  -4.5529  -4.3062  -3.9285
    -3.7389  -3.3264  -3.0243  -2.6406  -2.3347  -2.0019  -1.7462  -1.6860
    -1.5020  -1.3122  -1.2368  -1.2076  -1.0734  -0.9102  -0.7375  -0.6371
    -0.5299  -0.3744  -0.1353   0.0563   0.1331   0.2499   0.3515   0.5263
     0.6061   0.7628   0.7841   0.9180   1.3835   1.5313   1.9467   2.0412
     3.0364   3.1395   3.6942   4.0149   4.3464   4.5056   4.8177   4.9180
     4.9325   5.1586   5.4287   5.5266   5.6574   5.6777   5.7351   5.8244
     5.9081   5.9422   5.9643   6.1518   6.3282   6.4404   6.5286   6.6095

          k =-0.5000 0.0000 0.0000 ( 25114 PWs)   bands (ev):

    -8.4058  -8.3640  -8.2141  -8.0530  -7.7803  -7.5330  -7.0954  -6.8539
    -6.3027  -6.0455  -5.5101  -5.2160  -4.8157  -4.4810  -4.2510  -3.8903
    -3.6673  -3.2883  -2.9393  -2.5474  -2.1431  -1.7721  -1.6780  -1.5987
    -1.5755  -1.5101  -1.3353  -1.3085  -1.2126  -0.9317  -0.8971  -0.8879
    -0.6297  -0.4230  -0.1846  -0.1036   0.1092   0.4016   0.4170   0.6689
     0.6787   0.7364   0.9405   0.9473   1.1511   1.2233   2.0334   2.0954
     3.1925   3.3019   3.7970   3.9761   4.5842   4.5893   4.6150   5.0297
     5.1886   5.1983   5.2853   5.4572   5.7073   5.9211   6.0007   6.1664
     6.2055   6.2442   6.3657   6.6090   6.6422   6.9197   6.9664   6.9871

          k =-0.1250 0.1250 0.0000 ( 25157 PWs)   bands (ev):

    -9.2586  -9.0586  -8.6110  -7.8821  -6.9416  -6.1899  -6.1614  -6.1273
    -6.0512  -6.0253  -5.9057  -4.8924  -4.5514  -4.4599  -4.4202  -4.2890
    -4.2730  -4.2671  -4.0564  -3.3062  -2.3938  -1.7868  -1.6210  -1.5688
    -1.4294  -1.0762  -0.9028  -0.8586  -0.7910  -0.6526  -0.5620  -0.4032
    -0.3690  -0.1140   0.0133   0.0710   0.1348   0.2093   0.3917   0.5832
     0.8132   1.0595   1.2100   1.3723   1.6699   1.7196   1.8175   2.1632
     2.5209   2.6297   3.4972   3.6599   3.8112   3.9492   4.0066   4.0994
     4.3814   4.4314   4.5388   4.6083   4.7702   4.8370   4.9729   5.0291
     5.1967   5.3722   5.4331   5.5620   5.6940   5.8153   6.1493   6.3355

          k =-0.1250 0.2500 0.0000 ( 25179 PWs)   bands (ev):

    -9.0590  -8.8648  -8.4267  -7.7211  -6.9867  -6.8574  -6.6989  -6.4917
    -6.2430  -6.1159  -5.8863  -4.9930  -4.8378  -4.3943  -4.3102  -4.2454
    -4.0021  -3.5974  -3.4759  -3.2469  -2.5228  -1.9125  -1.6837  -1.6046
    -1.3509  -1.2332  -1.1937  -1.0206  -0.7774  -0.6852  -0.5220  -0.3817
    -0.2707  -0.1409  -0.1088  -0.0080   0.2018   0.2582   0.3882   0.5110
     0.6401   0.9190   1.1816   1.2345   1.6757   1.7337   1.7965   1.9048
     2.8088   2.8562   3.7601   3.9433   4.0454   4.1466   4.3326   4.4629
     4.5056   4.6932   4.9031   4.9928   5.0875   5.2077   5.2916   5.4765
     5.5206   5.6473   5.7673   5.8567   5.8885   6.0249   6.2964   6.4650

          k = 0.2500 0.1250 0.0000 ( 25179 PWs)   bands (ev):

    -9.0582  -8.8641  -8.4310  -7.7372  -7.0067  -6.8715  -6.6729  -6.4340
    -6.1830  -5.8527  -5.8115  -5.6356  -5.0485  -4.4467  -4.3286  -4.1048
    -3.8485  -3.5566  -3.2301  -2.8853  -2.7160  -2.1167  -1.5357  -1.4997
    -1.4141  -1.2714  -1.1685  -1.0346  -0.9392  -0.6199  -0.4876  -0.4358
    -0.2012  -0.1922  -0.1680  -0.0161   0.0671   0.2260   0.3764   0.5161
     0.6124   0.8590   1.1125   1.2473   1.6973   1.7331   1.8799   2.0383
     2.7833   2.8916   3.8610   3.9059   3.9814   4.1299   4.2093   4.2818
     4.6112   4.7463   4.8132   4.9545   5.1463   5.2479   5.3044   5.4677
     5.5810   5.6085   5.7691   5.8496   6.0043   6.2291   6.2978   6.4447

          k = 0.2500-0.1250 0.0000 ( 25179 PWs)   bands (ev):

    -9.0590  -8.8647  -8.4267  -7.7211  -6.9867  -6.8575  -6.6988  -6.4918
    -6.2430  -6.1159  -5.8863  -4.9930  -4.8377  -4.3943  -4.3102  -4.2454
    -4.0021  -3.5974  -3.4758  -3.2469  -2.5228  -1.9126  -1.6837  -1.6044
    -1.3509  -1.2332  -1.1937  -1.0205  -0.7775  -0.6852  -0.5221  -0.3817
    -0.2707  -0.1410  -0.1087  -0.0081   0.2018   0.2582   0.3883   0.5110
     0.6402   0.9189   1.1818   1.2345   1.6760   1.7336   1.7962   1.9050
     2.8088   2.8561   3.7600   3.9433   4.0454   4.1468   4.3326   4.4628
     4.5057   4.6932   4.9031   4.9930   5.0878   5.2075   5.2917   5.4767
     5.5207   5.6470   5.7673   5.8564   5.8886   6.0250   6.2974   6.4651

          k =-0.1250 0.3750 0.0000 ( 25168 PWs)   bands (ev):

    -8.7319  -8.5544  -8.1481  -7.6854  -7.5371  -7.3200  -7.0456  -6.6024
    -6.4750  -6.1101  -5.8146  -5.1282  -5.0656  -4.4297  -4.2869  -4.1436
    -3.6748  -3.5010  -3.1235  -2.7609  -2.5580  -2.0921  -1.6561  -1.6319
    -1.4903  -1.4231  -1.1643  -1.0811  -0.9701  -0.8253  -0.5983  -0.4914
    -0.2978  -0.1782   0.0129   0.1249   0.2700   0.3611   0.3917   0.5308
     0.6297   0.6796   1.0146   1.1178   1.4049   1.5028   1.8937   1.9806
     3.1313   3.1479   3.8422   4.1517   4.4417   4.6306   4.6731   4.8501
     4.9001   4.9522   5.1412   5.2622   5.4168   5.5224   5.6148   5.7599
     5.9019   5.9684   6.0990   6.2556   6.3965   6.4741   6.5972   6.6569

          k = 0.3750 0.1250 0.0000 ( 25168 PWs)   bands (ev):

    -8.7302  -8.5530  -8.1569  -7.6983  -7.5464  -7.3168  -7.0266  -6.5808
    -6.4270  -5.9509  -5.8428  -5.4844  -5.1433  -4.4377  -4.2333  -4.0484
    -3.5774  -3.5264  -2.9824  -2.8263  -2.4315  -2.1379  -1.6545  -1.5832
    -1.5265  -1.4245  -1.1970  -1.0215  -0.9339  -0.7418  -0.6842  -0.4396
    -0.3326  -0.2181  -0.1239   0.0291   0.2107   0.2611   0.3570   0.5272
     0.6588   0.7590   0.9666   1.1817   1.3595   1.4678   1.9546   2.0051
     3.1201   3.2172   3.9883   4.1237   4.3644   4.5624   4.7259   4.9159
     4.9262   5.0137   5.2330   5.3044   5.3399   5.4721   5.6503   5.6832
     5.8171   5.9922   6.1353   6.3026   6.3330   6.4074   6.4619   6.6197

          k = 0.3750-0.1250 0.0000 ( 25168 PWs)   bands (ev):

    -8.7319  -8.5544  -8.1481  -7.6854  -7.5369  -7.3202  -7.0455  -6.6026
    -6.4750  -6.1101  -5.8146  -5.1282  -5.0656  -4.4297  -4.2869  -4.1436
    -3.6748  -3.5010  -3.1234  -2.7608  -2.5580  -2.0921  -1.6562  -1.6318
    -1.4902  -1.4231  -1.1642  -1.0811  -0.9701  -0.8253  -0.5983  -0.4914
    -0.2978  -0.1784   0.0128   0.1251   0.2699   0.3611   0.3917   0.5308
     0.6297   0.6796   1.0146   1.1178   1.4049   1.5029   1.8937   1.9805
     3.1314   3.1478   3.8421   4.1517   4.4418   4.6306   4.6732   4.8500
     4.9000   4.9522   5.1413   5.2622   5.4168   5.5223   5.6149   5.7596
     5.9022   5.9683   6.0991   6.2554   6.3964   6.4739   6.5967   6.6578

          k =-0.5000 0.1250 0.0000 ( 25190 PWs)   bands (ev):

    -8.3420  -8.3007  -8.1548  -7.9972  -7.7295  -7.4930  -7.0652  -6.8499
    -6.3316  -6.1425  -5.7899  -5.2728  -5.1879  -4.4064  -4.3143  -3.9044
    -3.7906  -3.2864  -3.1636  -2.6886  -2.3956  -1.9903  -1.6542  -1.6265
    -1.5674  -1.3438  -1.2603  -1.2470  -0.9882  -0.8144  -0.7341  -0.5039
    -0.3408  -0.1929  -0.0650   0.1160   0.2422   0.3577   0.4189   0.6810
     0.7551   0.8159   0.9009   0.9424   1.1671   1.2551   2.0030   2.0698
     3.3316   3.3484   3.9941   4.2128   4.5392   4.5810   4.7158   4.9187
     5.1094   5.2226   5.3151   5.4420   5.7985   5.8609   5.9606   6.0631
     6.1672   6.1862   6.2478   6.2719   6.4090   6.4524   6.5168   6.6953

          k =-0.2500 0.2500 0.0000 ( 25180 PWs)   bands (ev):

    -8.8627  -8.6740  -8.2445  -7.5580  -6.8573  -6.8489  -6.7938  -6.7372
    -6.6758  -6.6111  -5.9905  -5.3117  -5.2384  -4.2588  -4.1189  -4.0568
    -3.7073  -3.7038  -3.4901  -3.4620  -2.7654  -2.1608  -1.6615  -1.4305
    -1.3050  -1.2399  -1.0350  -0.9871  -0.7005  -0.6788  -0.6701  -0.3689
    -0.3408   0.1012   0.1932   0.2370   0.3530   0.4136   0.4640   0.5437
     0.7657   0.8760   1.2736   1.3401   1.6357   1.6982   1.8582   2.1173
     2.9101   2.9701   3.8692   4.1091   4.2030   4.2312   4.2902   4.3970
     4.4376   4.7570   4.8299   4.9126   5.2921   5.3638   5.5974   5.6458
     5.7592   5.8431   5.9096   5.9524   5.9850   6.3000   6.4881   6.7720

          k =-0.2500 0.3750 0.0000 ( 25213 PWs)   bands (ev):

    -8.5415  -8.3688  -7.9683  -7.5174  -7.3882  -7.2139  -7.0260  -6.7686
    -6.6576  -6.5138  -6.0903  -5.5876  -5.5771  -4.2333  -4.1637  -4.0618
    -3.8418  -3.7479  -3.4123  -3.1129  -2.9286  -2.4092  -1.9347  -1.5820
    -1.3260  -1.1939  -0.8502  -0.8009  -0.6400  -0.4268  -0.3090  -0.2501
    -0.1386   0.1698   0.2497   0.2583   0.3894   0.4379   0.5751   0.6849
     0.8182   0.8457   1.0834   1.3158   1.6724   1.8256   1.8473   1.9531
     3.1615   3.2478   4.1995   4.2373   4.4047   4.4665   4.6712   4.7285
     4.8450   4.8736   4.9450   5.1533   5.3636   5.4020   5.4911   5.7939
     5.8300   5.9749   6.0204   6.1910   6.2485   6.3543   6.5108   6.6029

          k = 0.3750 0.2500 0.0000 ( 25213 PWs)   bands (ev):

    -8.5375  -8.3656  -7.9886  -7.5531  -7.4136  -7.2125  -6.9805  -6.7257
    -6.5077  -6.3322  -6.3130  -5.7189  -5.6655  -4.3942  -4.1695  -4.0665
    -3.9185  -3.6741  -3.2203  -3.1241  -2.5172  -2.2365  -2.0419  -1.6646
    -1.5154  -1.2024  -0.9427  -0.7559  -0.5455  -0.4262  -0.3809  -0.2630
    -0.0932  -0.0469   0.1667   0.3086   0.3962   0.4486   0.5620   0.6947
     0.8107   0.9728   1.0931   1.3057   1.4958   1.6148   1.9056   1.9953
     3.2999   3.3300   4.2075   4.2404   4.4107   4.5834   4.6675   4.6872
     4.7986   4.8941   4.9673   5.2940   5.4304   5.4919   5.5785   5.6997
     5.7289   5.8662   6.0363   6.1713   6.3092   6.3237   6.3898   6.4671

          k = 0.3750-0.2500 0.0000 ( 25213 PWs)   bands (ev):

    -8.5415  -8.3688  -7.9682  -7.5174  -7.3880  -7.2141  -7.0260  -6.7686
    -6.6576  -6.5139  -6.0903  -5.5876  -5.5771  -4.2333  -4.1637  -4.0618
    -3.8418  -3.7479  -3.4123  -3.1129  -2.9286  -2.4092  -1.9347  -1.5820
    -1.3260  -1.1939  -0.8501  -0.8009  -0.6400  -0.4269  -0.3090  -0.2501
    -0.1387   0.1698   0.2498   0.2583   0.3894   0.4377   0.5751   0.6850
     0.8182   0.8457   1.0834   1.3158   1.6723   1.8259   1.8471   1.9532
     3.1615   3.2477   4.1995   4.2373   4.4049   4.4664   4.6713   4.7284
     4.8450   4.8738   4.9449   5.1531   5.3637   5.4018   5.4910   5.7941
     5.8302   5.9747   6.0204   6.1904   6.2483   6.3551   6.5106   6.5982

          k =-0.5000 0.2500 0.0000 ( 25212 PWs)   bands (ev):

    -8.1536  -8.1140  -7.9804  -7.8351  -7.5855  -7.3865  -7.0003  -6.8668
    -6.5172  -6.3579  -6.2474  -5.7438  -5.7315  -4.2235  -4.2005  -4.1473
    -3.9814  -3.6674  -3.4323  -2.9902  -2.7727  -2.3778  -1.9869  -1.7244
    -1.4809  -1.2872  -0.8724  -0.7243  -0.4474  -0.4042  -0.1521  -0.0688
     0.0309   0.1094   0.2247   0.3669   0.4372   0.5598   0.6381   0.7679
     0.8539   0.8902   0.9742   1.0632   1.3799   1.4743   1.9960   2.0437
     3.4423   3.4748   4.4060   4.4814   4.6255   4.6683   4.7509   4.8236
     5.0988   5.1489   5.2416   5.4087   5.4550   5.5666   5.6377   5.7142
     5.7368   5.8429   5.9011   6.0566   6.1673   6.2939   6.3590   6.3720

          k =-0.3750 0.3750 0.0000 ( 25250 PWs)   bands (ev):

    -8.2316  -8.0744  -7.6974  -7.2689  -7.2529  -7.2062  -7.1554  -7.0815
    -7.0342  -6.5143  -6.3932  -6.0089  -5.9928  -4.1999  -4.1927  -4.1273
    -3.9504  -3.6646  -3.5820  -3.4070  -3.2036  -2.7579  -2.1043  -1.8895
    -1.1040  -1.0418  -0.7053  -0.6986  -0.1860  -0.1046  -0.0633  -0.0251
     0.0769   0.2677   0.5377   0.6012   0.6509   0.6978   0.8371   0.8445
     0.9169   0.9621   1.2391   1.5579   1.8087   1.9500   1.9881   1.9938
     3.2616   3.3707   4.0379   4.1053   4.4324   4.6136   4.7248   4.7883
     4.8517   4.8779   5.1080   5.1978   5.4666   5.4983   5.6177   5.6601
     5.7405   5.8180   5.9523   6.0055   6.0385   6.0912   6.0922   6.2021

          k =-0.5000 0.3750 0.0000 ( 25258 PWs)   bands (ev):

    -7.8547  -7.8177  -7.7081  -7.5879  -7.3883  -7.2714  -7.0369  -7.0061
    -6.9328  -6.6023  -6.5818  -6.1919  -6.1756  -4.2338  -4.2061  -4.1168
    -4.0557  -3.7924  -3.6776  -3.4232  -3.1026  -2.8013  -2.1287  -1.9360
    -1.3767  -0.9115  -0.8783  -0.6405  -0.3056   0.0610   0.1060   0.2882
     0.3747   0.4816   0.6304   0.7798   0.7995   0.8687   0.9002   1.0229
     1.0729   1.0763   1.1961   1.2006   1.8551   1.8612   1.9802   2.0487
     3.4825   3.5689   4.1956   4.2734   4.3562   4.4579   4.6284   4.7709
     4.9141   4.9695   5.1186   5.2331   5.3641   5.5056   5.5382   5.5794
     5.6920   5.7572   5.8108   5.8369   5.8870   5.9475   6.0461   6.2252

     the Fermi energy is     2.2821 ev

!    total energy              =   -1121.08762862 Ry
     Harris-Foulkes estimate   =   -1121.08762862 Ry
     estimated scf accuracy    <          8.4E-09 Ry

     total all-electron energy =    -13921.388388 Ry

     The total energy is the sum of the following terms:

     one-electron contribution =    -932.18985996 Ry
     hartree contribution      =     500.46640113 Ry
     xc contribution           =    -117.52832975 Ry
     ewald contribution        =     311.76352114 Ry
     one-center paw contrib.   =    -883.59843336 Ry
     smearing contrib. (-TS)   =      -0.00092782 Ry

     convergence has been achieved in  15 iterations

     negative rho (up, down):  5.951E-07 0.000E+00

     Forces acting on atoms (cartesian axes, Ry/au):

     atom    1 type  1   force =     0.00000346    0.00000048    0.00001398
     atom    2 type  1   force =    -0.00000075    0.00000385    0.00000313
     atom    3 type  1   force =    -0.00000097    0.00000349    0.00000329
     atom    4 type  1   force =     0.00000292    0.00000121   -0.00000332
     atom    5 type  1   force =     0.00000067    0.00000236    0.00000477
     atom    6 type  1   force =    -0.00000381    0.00000642    0.00000420
     atom    7 type  1   force =    -0.00000455    0.00000742   -0.00000050
     atom    8 type  1   force =     0.00000218    0.00000302    0.00000474
     atom    9 type  1   force =    -0.00000492    0.00000631   -0.00000025
     atom   10 type  1   force =    -0.00000007   -0.00000011    0.00000118
     atom   11 type  1   force =    -0.00000073   -0.00000085    0.00000120
     atom   12 type  1   force =    -0.00000549    0.00000675    0.00000290
     atom   13 type  1   force =    -0.00000215    0.00000131    0.00000231
     atom   14 type  1   force =     0.00000428   -0.00000625    0.00000329
     atom   15 type  1   force =     0.00000661   -0.00000853    0.00000004
     atom   16 type  1   force =    -0.00000074    0.00000271    0.00000198
     atom   17 type  1   force =     0.00000410   -0.00000690    0.00000452
     atom   18 type  1   force =     0.00000035    0.00000012   -0.00000712
     atom   19 type  1   force =    -0.00000332   -0.00000351   -0.00000701
     atom   20 type  1   force =     0.00000682   -0.00001021   -0.00000165
     atom   21 type  1   force =     0.00000059    0.00000123   -0.00000206
     atom   22 type  1   force =    -0.00000359    0.00000038   -0.00000586
     atom   23 type  1   force =     0.00000354   -0.00000696   -0.00002146
     atom   24 type  1   force =    -0.00000443   -0.00000375   -0.00000229

     Total force =     0.000043     Total SCF correction =     0.000153
     SCF correction compared to forces is large: reduce conv_thr to get better values


     Computing stress (Cartesian axis) and pressure


     negative rho (up, down):  5.951E-07 0.000E+00
          total   stress  (Ry/bohr**3)                   (kbar)     P=   -2.33
  -0.00002311   0.00003967   0.00000025         -3.40      5.84      0.04
   0.00003967  -0.00002319  -0.00000013          5.84     -3.41     -0.02
   0.00000025  -0.00000013  -0.00000122          0.04     -0.02     -0.18


     Writing output data file Si.Fd-3m_3ML.save/
 
     init_run     :      2.89s CPU      3.44s WALL (       1 calls)
     electrons    :    299.64s CPU    320.20s WALL (       1 calls)
     forces       :      0.79s CPU      0.86s WALL (       1 calls)
     stress       :      4.78s CPU      5.58s WALL (       1 calls)

     Called by init_run:
     wfcinit      :      1.82s CPU      1.88s WALL (       1 calls)
     potinit      :      0.64s CPU      0.95s WALL (       1 calls)
     hinit0       :      0.26s CPU      0.26s WALL (       1 calls)

     Called by electrons:
     c_bands      :    254.59s CPU    266.43s WALL (      16 calls)
     sum_band     :     15.52s CPU     19.00s WALL (      16 calls)
     v_of_rho     :      1.36s CPU      1.42s WALL (      16 calls)
     newd         :      0.18s CPU      0.22s WALL (      16 calls)
     PAW_pot      :      4.14s CPU      6.21s WALL (      16 calls)
     mix_rho      :     21.56s CPU     21.69s WALL (      16 calls)

     Called by c_bands:
     init_us_2    :      0.86s CPU      0.86s WALL (     105 calls)
     ccgdiagg     :    225.65s CPU    227.17s WALL (      48 calls)
     wfcrot       :     19.78s CPU     20.00s WALL (      45 calls)

     Called by sum_band:
     sum_band:bec :      0.00s CPU      0.00s WALL (      48 calls)
     addusdens    :      1.06s CPU      2.02s WALL (      16 calls)

     Called by *cgdiagg:
     h_psi        :    130.84s CPU    132.03s WALL (    8877 calls)
     s_psi        :     62.65s CPU     62.98s WALL (   17709 calls)
     cdiaghg      :      0.06s CPU      0.07s WALL (      45 calls)

     Called by h_psi:
     h_psi:pot    :    130.31s CPU    131.44s WALL (    8877 calls)
     h_psi:calbec :     34.82s CPU     34.98s WALL (    8877 calls)
     vloc_psi     :     63.42s CPU     64.19s WALL (    8877 calls)
     add_vuspsi   :     32.00s CPU     32.21s WALL (    8877 calls)
     hs_1psi      :    144.40s CPU    145.61s WALL (    8832 calls)
     s_1psi       :     62.91s CPU     63.17s WALL (    8832 calls)

     General routines
     calbec       :     67.50s CPU     67.95s WALL (   17772 calls)
     fft          :      1.15s CPU      1.29s WALL (     202 calls)
     ffts         :     10.99s CPU     11.08s WALL (    2052 calls)
     fftw         :     57.54s CPU     57.85s WALL (   27744 calls)
 
     Parallel routines
     fft_scatt_xy :     14.36s CPU     13.96s WALL (   29998 calls)
     fft_scatt_yz :     18.94s CPU     19.13s WALL (   29998 calls)
 
     PWSCF        :   5m 8.85s CPU   7m 4.24s WALL

 
   This run was terminated on:  16: 4:47   3Sep2021            

=------------------------------------------------------------------------------=
   JOB DONE.
=------------------------------------------------------------------------------=
Note: The following floating-point exceptions are signalling: IEEE_UNDERFLOW_FLAG IEEE_DENORMAL
Note: The following floating-point exceptions are signalling: IEEE_DENORMAL
Note: The following floating-point exceptions are signalling: IEEE_DENORMAL
Note: The following floating-point exceptions are signalling: IEEE_DENORMAL
