
     Program PWSCF v.6.4.1 starts on  4Sep2021 at  4:31:12 

     This program is part of the open-source Quantum ESPRESSO suite
     for quantum simulation of materials; please cite
         "P. Giannozzi et al., J. Phys.:Condens. Matter 21 395502 (2009);
         "P. Giannozzi et al., J. Phys.:Condens. Matter 29 465901 (2017);
          URL http://www.quantum-espresso.org", 
     in publications or presentations arising from this work. More details at
     http://www.quantum-espresso.org/quote

     Parallel version (MPI), running on    60 processors

     MPI processes distributed on    15 nodes
     K-points division:     npool     =      15
     R & G space division:  proc/nbgrp/npool/nimage =       4
     Reading input from Si.Fd-3m_5ML.scf.in

     Current dimensions of program PWSCF are:
     Max number of different atomic species (ntypx) = 10
     Max number of k-points (npk) =  40000
     Max angular momentum in pseudopotentials (lmaxx) =  3
               file Si.pbe-nl-kjpaw_psl.1.0.0.UPF: wavefunction(s)  3S 3P renormalized

     Subspace diagonalization in iterative solution of the eigenvalue problem:
     a serial algorithm will be used

     Message from routine setup:
     DEPRECATED: symmetry with ibrav=0, use correct ibrav instead
 
     Parallelization info
     --------------------
     sticks:   dense  smooth     PW     G-vecs:    dense   smooth      PW
     Min         369     369    106                70169    70169   11017
     Max         371     371    108                70177    70177   11028
     Sum        1481    1481    429               280693   280693   44095
 

     Title: 
     Relaxation of atomic positions for single monolayer slab of Si using PBE   


     bravais-lattice index     =            0
     lattice parameter (alat)  =      10.2803  a.u.
     unit-cell volume          =    7170.7055 (a.u.)^3
     number of atoms/cell      =           40
     number of atomic types    =            1
     number of electrons       =       160.00
     number of Kohn-Sham states=          120
     kinetic-energy cutoff     =      45.0000  Ry
     charge density cutoff     =     175.0000  Ry
     convergence threshold     =      1.0E-08
     mixing beta               =       0.5000
     number of iterations used =            8  local-TF  mixing
     Exchange-correlation      = SLA PW PBX PBC ( 1  4  3  4 0 0)

     celldm(1)=  10.280305  celldm(2)=   0.000000  celldm(3)=   0.000000
     celldm(4)=   0.000000  celldm(5)=   0.000000  celldm(6)=   0.000000

     crystal axes: (cart. coord. in units of alat)
               a(1) = (   1.000000   0.000000   0.000000 )  
               a(2) = (   0.000000   1.000000   0.000000 )  
               a(3) = (   0.000000   0.000000   6.600000 )  

     reciprocal axes: (cart. coord. in units 2 pi/alat)
               b(1) = (  1.000000  0.000000  0.000000 )  
               b(2) = (  0.000000  1.000000  0.000000 )  
               b(3) = (  0.000000  0.000000  0.151515 )  


     PseudoPot. # 1 for Si read from file:
     /share/pseudo/Si.pbe-nl-kjpaw_psl.1.0.0.UPF
     MD5 check sum: 3686bff6734aab787fb18a3c8374d51f
     Pseudo is Projector augmented-wave + core cor, Zval =  4.0
     Generated using "atomic" code by A. Dal Corso v.6.3
     Shape of augmentation charge: PSQ
     Using radial grid of 1141 points,  4 beta functions with: 
                l(1) =   0
                l(2) =   0
                l(3) =   1
                l(4) =   1
     Q(r) pseudized with 0 coefficients 


     atomic species   valence    mass     pseudopotential
        Si             4.00    28.08600     Si( 1.00)

      2 Sym. Ops. (no inversion) found



   Cartesian axes

     site n.     atom                  positions (alat units)
         1           Si  tau(   1) = (   0.0021527   0.0021527   0.7741505  )
         2           Si  tau(   2) = (   0.0021041   0.5020996   1.3015186  )
         3           Si  tau(   3) = (   0.5020996   0.0021041   1.3015186  )
         4           Si  tau(   4) = (   0.5021573   0.5021573   0.8280753  )
         5           Si  tau(   5) = (   0.2404376   0.2404376   1.0495617  )
         6           Si  tau(   6) = (   0.2527284   0.7514652   1.5527318  )
         7           Si  tau(   7) = (   0.7514652   0.2527284   1.5527318  )
         8           Si  tau(   8) = (   0.7638769   0.7638769   1.0495678  )
         9           Si  tau(   9) = (   0.0020683   0.0020683   1.8043592  )
        10           Si  tau(  10) = (   0.0020182   0.5020120   2.3099582  )
        11           Si  tau(  11) = (   0.5020120   0.0020182   2.3099582  )
        12           Si  tau(  12) = (   0.5020655   0.5020655   1.8060790  )
        13           Si  tau(  13) = (   0.2517746   0.2517746   2.0575338  )
        14           Si  tau(  14) = (   0.2519304   0.7520720   2.5623520  )
        15           Si  tau(  15) = (   0.7520720   0.2519304   2.5623520  )
        16           Si  tau(  16) = (   0.7523433   0.7523433   2.0575395  )
        17           Si  tau(  17) = (   0.0019489   0.0019489   2.8149707  )
        18           Si  tau(  18) = (   0.0018869   0.5018819   3.3193337  )
        19           Si  tau(  19) = (   0.5018819   0.0018869   3.3193337  )
        20           Si  tau(  20) = (   0.5019477   0.5019477   2.8143124  )
        21           Si  tau(  21) = (   0.2522419   0.2522419   3.0670124  )
        22           Si  tau(  22) = (   0.2509945   0.7527425   3.5717297  )
        23           Si  tau(  23) = (   0.7527425   0.2509945   3.5717297  )
        24           Si  tau(  24) = (   0.7516265   0.7516265   3.0670176  )
        25           Si  tau(  25) = (   0.0018129   0.0018129   3.8266982  )
        26           Si  tau(  26) = (   0.0017632   0.5017608   4.3286667  )
        27           Si  tau(  27) = (   0.5017608   0.0017632   4.3286667  )
        28           Si  tau(  28) = (   0.5018101   0.5018101   3.8213731  )
        29           Si  tau(  29) = (   0.2539236   0.2539236   4.0763923  )
        30           Si  tau(  30) = (   0.2456261   0.7578733   4.5808378  )
        31           Si  tau(  31) = (   0.7578733   0.2456261   4.5808378  )
        32           Si  tau(  32) = (   0.7496719   0.7496719   4.0763919  )
        33           Si  tau(  33) = (   0.0016967   0.0016967   4.8516575  )
        34           Si  tau(  34) = (   0.0016310   0.5015999   5.3429072  )
        35           Si  tau(  35) = (   0.5015999   0.0016310   5.3429072  )
        36           Si  tau(  36) = (   0.5016963   0.5016963   4.8146851  )
        37           Si  tau(  37) = (   0.2652754   0.2652754   5.0871837  )
        38           Si  tau(  38) = (   0.1486869   0.8545257   5.5359277  )
        39           Si  tau(  39) = (   0.8545257   0.1486869   5.5359277  )
        40           Si  tau(  40) = (   0.7380954   0.7380954   5.0871994  )

     number of k points=    21  gaussian smearing, width (Ry)=  0.0100
                       cart. coord. in units 2pi/alat
        k(    1) = (   0.0000000   0.0000000   0.0000000), wk =   0.0312500
        k(    2) = (   0.0000000   0.1250000   0.0000000), wk =   0.1250000
        k(    3) = (   0.0000000   0.2500000   0.0000000), wk =   0.1250000
        k(    4) = (   0.0000000   0.3750000   0.0000000), wk =   0.1250000
        k(    5) = (   0.0000000  -0.5000000   0.0000000), wk =   0.0625000
        k(    6) = (   0.1250000   0.1250000   0.0000000), wk =   0.0625000
        k(    7) = (   0.1250000   0.2500000   0.0000000), wk =   0.1250000
        k(    8) = (   0.1250000   0.3750000   0.0000000), wk =   0.1250000
        k(    9) = (   0.1250000  -0.5000000   0.0000000), wk =   0.1250000
        k(   10) = (   0.2500000   0.2500000   0.0000000), wk =   0.0625000
        k(   11) = (   0.2500000   0.3750000   0.0000000), wk =   0.1250000
        k(   12) = (   0.2500000  -0.5000000   0.0000000), wk =   0.1250000
        k(   13) = (   0.3750000   0.3750000   0.0000000), wk =   0.0625000
        k(   14) = (   0.3750000  -0.5000000   0.0000000), wk =   0.1250000
        k(   15) = (  -0.5000000  -0.5000000   0.0000000), wk =   0.0312500
        k(   16) = (  -0.1250000   0.1250000   0.0000000), wk =   0.0625000
        k(   17) = (  -0.1250000   0.2500000   0.0000000), wk =   0.1250000
        k(   18) = (  -0.1250000   0.3750000   0.0000000), wk =   0.1250000
        k(   19) = (  -0.2500000   0.2500000   0.0000000), wk =   0.0625000
        k(   20) = (  -0.2500000   0.3750000   0.0000000), wk =   0.1250000
        k(   21) = (  -0.3750000   0.3750000   0.0000000), wk =   0.0625000

     Dense  grid:   280693 G-vectors     FFT dimensions: (  45,  45, 288)

     Estimated max dynamical RAM per process >     179.71 MB

     Estimated total dynamical RAM >      10.53 GB

     Initial potential from superposition of free atoms

     starting charge  159.97763, renormalised to  160.00000

     negative rho (up, down):  7.341E-06 0.000E+00
     Starting wfcs are  160 randomized atomic wfcs
     Checking if some PAW data can be deallocated... 

     total cpu time spent up to now is        7.1 secs

     Self-consistent Calculation

     iteration #  1     ecut=    45.00 Ry     beta= 0.50
     CG style diagonalization
     ethr =  1.00E-02,  avg # of iterations =  3.4

     Threshold (ethr) on eigenvalues was too large:
     Diagonalizing with lowered threshold

     CG style diagonalization
     ethr =  7.74E-04,  avg # of iterations =  2.2

     total cpu time spent up to now is       96.6 secs

     total energy              =   -1868.67291927 Ry
     Harris-Foulkes estimate   =   -1868.82799010 Ry
     estimated scf accuracy    <       1.25164448 Ry

     iteration #  2     ecut=    45.00 Ry     beta= 0.50
     CG style diagonalization
     ethr =  7.82E-04,  avg # of iterations =  3.0

     total cpu time spent up to now is      130.5 secs

     total energy              =   -1868.53951647 Ry
     Harris-Foulkes estimate   =   -1868.70142178 Ry
     estimated scf accuracy    <       0.62540049 Ry

     iteration #  3     ecut=    45.00 Ry     beta= 0.50
     CG style diagonalization
     ethr =  3.91E-04,  avg # of iterations =  3.0

     total cpu time spent up to now is      165.0 secs

     total energy              =   -1868.58277933 Ry
     Harris-Foulkes estimate   =   -1868.58551039 Ry
     estimated scf accuracy    <       0.08715526 Ry

     iteration #  4     ecut=    45.00 Ry     beta= 0.50
     CG style diagonalization
     c_bands:  2 eigenvalues not converged
     c_bands:  4 eigenvalues not converged
     ethr =  5.45E-05,  avg # of iterations =  4.4

     total cpu time spent up to now is      241.5 secs

     total energy              =   -1868.59349787 Ry
     Harris-Foulkes estimate   =   -1868.59418045 Ry
     estimated scf accuracy    <       0.02187791 Ry

     iteration #  5     ecut=    45.00 Ry     beta= 0.50
     CG style diagonalization
     c_bands:  2 eigenvalues not converged
     ethr =  1.37E-05,  avg # of iterations =  4.0

     total cpu time spent up to now is      293.8 secs

     total energy              =   -1868.59406594 Ry
     Harris-Foulkes estimate   =   -1868.59541834 Ry
     estimated scf accuracy    <       0.01677947 Ry

     iteration #  6     ecut=    45.00 Ry     beta= 0.50
     CG style diagonalization
     c_bands:  1 eigenvalues not converged
     ethr =  1.05E-05,  avg # of iterations =  3.1

     total cpu time spent up to now is      329.9 secs

     total energy              =   -1868.59361225 Ry
     Harris-Foulkes estimate   =   -1868.59459488 Ry
     estimated scf accuracy    <       0.01319793 Ry

     iteration #  7     ecut=    45.00 Ry     beta= 0.50
     CG style diagonalization
     ethr =  8.25E-06,  avg # of iterations =  3.1

     negative rho (up, down):  4.623E-06 0.000E+00

     total cpu time spent up to now is      368.4 secs

     total energy              =   -1868.59361494 Ry
     Harris-Foulkes estimate   =   -1868.59391639 Ry
     estimated scf accuracy    <       0.00791191 Ry

     iteration #  8     ecut=    45.00 Ry     beta= 0.50
     CG style diagonalization
     ethr =  4.94E-06,  avg # of iterations =  3.3

     negative rho (up, down):  4.423E-06 0.000E+00

     total cpu time spent up to now is      415.1 secs

     total energy              =   -1868.59404236 Ry
     Harris-Foulkes estimate   =   -1868.59412239 Ry
     estimated scf accuracy    <       0.00141413 Ry

     iteration #  9     ecut=    45.00 Ry     beta= 0.50
     CG style diagonalization
     ethr =  8.84E-07,  avg # of iterations =  3.7

     total cpu time spent up to now is      464.9 secs

     total energy              =   -1868.59400041 Ry
     Harris-Foulkes estimate   =   -1868.59413179 Ry
     estimated scf accuracy    <       0.00123153 Ry

     iteration # 10     ecut=    45.00 Ry     beta= 0.50
     CG style diagonalization
     ethr =  7.70E-07,  avg # of iterations =  3.1

     negative rho (up, down):  6.745E-03 0.000E+00

     total cpu time spent up to now is      505.2 secs

     total energy              =   -1868.59418310 Ry
     Harris-Foulkes estimate   =   -1868.59406042 Ry
     estimated scf accuracy    <       0.00069953 Ry

     iteration # 11     ecut=    45.00 Ry     beta= 0.50
     CG style diagonalization
     ethr =  4.37E-07,  avg # of iterations =  3.0

     negative rho (up, down):  8.820E-04 0.000E+00

     total cpu time spent up to now is      545.0 secs

     total energy              =   -1868.59405577 Ry
     Harris-Foulkes estimate   =   -1868.59422578 Ry
     estimated scf accuracy    <       0.00016796 Ry

     iteration # 12     ecut=    45.00 Ry     beta= 0.50
     CG style diagonalization
     ethr =  1.05E-07,  avg # of iterations =  3.1

     negative rho (up, down):  9.901E-05 0.000E+00

     total cpu time spent up to now is      587.8 secs

     total energy              =   -1868.59405425 Ry
     Harris-Foulkes estimate   =   -1868.59407335 Ry
     estimated scf accuracy    <       0.00005871 Ry

     iteration # 13     ecut=    45.00 Ry     beta= 0.50
     CG style diagonalization
     ethr =  3.67E-08,  avg # of iterations =  3.1

     negative rho (up, down):  3.617E-06 0.000E+00

     total cpu time spent up to now is      632.4 secs

     total energy              =   -1868.59405791 Ry
     Harris-Foulkes estimate   =   -1868.59406012 Ry
     estimated scf accuracy    <       0.00001262 Ry

     iteration # 14     ecut=    45.00 Ry     beta= 0.50
     CG style diagonalization
     ethr =  7.89E-09,  avg # of iterations =  3.4

     total cpu time spent up to now is      674.6 secs

     total energy              =   -1868.59406072 Ry
     Harris-Foulkes estimate   =   -1868.59406039 Ry
     estimated scf accuracy    <       0.00000188 Ry

     iteration # 15     ecut=    45.00 Ry     beta= 0.50
     CG style diagonalization
     ethr =  1.18E-09,  avg # of iterations =  3.4

     total cpu time spent up to now is      718.0 secs

     total energy              =   -1868.59406088 Ry
     Harris-Foulkes estimate   =   -1868.59406105 Ry
     estimated scf accuracy    <       0.00000097 Ry

     iteration # 16     ecut=    45.00 Ry     beta= 0.50
     CG style diagonalization
     ethr =  6.09E-10,  avg # of iterations =  3.2

     negative rho (up, down):  1.631E-07 0.000E+00

     total cpu time spent up to now is      760.4 secs

     total energy              =   -1868.59406106 Ry
     Harris-Foulkes estimate   =   -1868.59406103 Ry
     estimated scf accuracy    <       0.00000006 Ry

     iteration # 17     ecut=    45.00 Ry     beta= 0.50
     CG style diagonalization
     ethr =  3.96E-11,  avg # of iterations =  4.0

     negative rho (up, down):  3.464E-07 0.000E+00

     total cpu time spent up to now is      815.2 secs

     total energy              =   -1868.59406108 Ry
     Harris-Foulkes estimate   =   -1868.59406109 Ry
     estimated scf accuracy    <       0.00000002 Ry

     iteration # 18     ecut=    45.00 Ry     beta= 0.50
     CG style diagonalization
     ethr =  1.48E-11,  avg # of iterations =  3.0

     negative rho (up, down):  2.865E-07 0.000E+00

     total cpu time spent up to now is      855.1 secs

     total energy              =   -1868.59406109 Ry
     Harris-Foulkes estimate   =   -1868.59406109 Ry
     estimated scf accuracy    <       0.00000001 Ry

     iteration # 19     ecut=    45.00 Ry     beta= 0.50
     CG style diagonalization
     ethr =  6.80E-12,  avg # of iterations =  3.1

     negative rho (up, down):  2.387E-07 0.000E+00

     total cpu time spent up to now is      891.5 secs

     End of self-consistent calculation

          k = 0.0000 0.0000 0.0000 ( 36517 PWs)   bands (ev):

    -8.4095  -8.2947  -8.1133  -7.8459  -7.4943  -7.0616  -6.5538  -5.9803
    -5.3491  -4.6676  -4.3318  -4.3273  -4.3256  -4.3250  -4.3077  -4.2895
    -4.2655  -4.2615  -4.2520  -4.2500  -4.2127  -4.2038  -4.2005  -4.1925
    -4.1801  -4.1710  -4.1459  -3.9888  -3.9287  -3.1780  -3.1144  -3.0561
    -2.3985  -1.6166  -0.8389  -0.5621  -0.3095  -0.2929  -0.2920  -0.2596
    -0.1541  -0.0629  -0.0607  -0.0203   0.0263   0.2074   0.2224   0.2251
     0.3484   0.4419   0.4667   0.4807   0.6427   0.6921   0.6974   0.7617
     0.8091   0.8352   0.8379   1.0179   1.0295   1.2308   1.2846   1.4729
     1.5041   1.6043   1.8483   1.9874   2.1458   2.2449   2.4221   2.6630
     2.6737   2.7836   2.8453   2.8717   3.0630   3.1335   3.2154   3.3062
     3.3419   3.5727   4.1216   4.1308   4.2723   4.3106   4.3495   4.3498
     4.4139   4.4578   4.4961   4.5916   4.7881   4.8583   4.9026   4.9187
     5.1054   5.1647   5.1941   5.3799   5.4519   5.4796   5.5936   5.6764
     5.6869   5.9252   6.0040   6.0519   6.0997   6.1298   6.1747   6.2360
     6.5641   6.5642   6.5894   6.7797   6.7937   6.9705   6.9855   7.1183

          k = 0.0000 0.1250 0.0000 ( 36538 PWs)   bands (ev):

    -8.3418  -8.2277  -8.0473  -7.7813  -7.4319  -7.0024  -6.4993  -5.9330
    -5.3200  -5.2260  -5.1340  -5.0321  -4.9047  -4.7650  -4.6374  -4.6129
    -4.5129  -4.4214  -4.3348  -4.2389  -4.1268  -3.9951  -3.9264  -3.8460
    -3.6891  -3.5435  -3.4318  -3.3625  -3.3458  -3.2224  -2.8953  -2.8586
    -2.3948  -1.6780  -0.9785  -0.6705  -0.6371  -0.5432  -0.3964  -0.2693
    -0.2021  -0.0763   0.0671   0.1761   0.1916   0.2581   0.3507   0.3726
     0.4433   0.4633   0.5000   0.5069   0.5652   0.5719   0.6058   0.6539
     0.6677   0.7379   0.8448   0.8721   0.9035   1.1114   1.1208   1.1727
     1.4391   1.4871   1.7214   1.8748   1.8940   2.2211   2.3428   2.3891
     2.6775   2.7415   2.7747   2.8654   2.9646   3.0517   3.0903   3.2121
     3.4468   3.6029   4.2656   4.4811   4.4876   4.5021   4.5106   4.6392
     4.6765   4.6929   4.8346   4.8705   4.9483   5.0439   5.1097   5.1528
     5.2697   5.2927   5.3551   5.4905   5.5651   5.6660   5.8379   5.9017
     5.9471   5.9757   6.0377   6.0931   6.2324   6.2796   6.3404   6.3872
     6.4745   6.5553   6.7098   6.8313   6.8989   6.9433   7.0331   7.0866

          k = 0.0000 0.2500 0.0000 ( 36458 PWs)   bands (ev):

    -8.1395  -8.0277  -7.8505  -7.5892  -7.2471  -6.8288  -6.3455  -6.0398
    -5.9421  -5.8368  -5.7397  -5.5972  -5.3829  -5.1872  -5.1054  -4.8718
    -4.6349  -4.5351  -4.4142  -4.2146  -4.0143  -3.8968  -3.7961  -3.5668
    -3.3430  -3.2387  -3.0417  -2.8172  -2.6781  -2.5059  -2.3768  -2.2750
    -2.1737  -1.8106  -1.2575  -0.8455  -0.8162  -0.7278  -0.5768  -0.5585
    -0.3684  -0.2087  -0.0798  -0.0111   0.0837   0.0851   0.2043   0.2557
     0.2616   0.3481   0.4837   0.5271   0.5731   0.6256   0.6820   0.7305
     0.7367   0.8097   0.8284   0.8632   0.9110   0.9696   1.0374   1.0819
     1.1019   1.2131   1.3120   1.5871   1.6623   1.7786   2.0286   2.1816
     2.2237   2.5092   2.6628   2.8027   2.8481   2.9910   3.0344   3.2272
     3.5516   3.7436   4.3028   4.7609   4.8212   4.8627   5.0118   5.1687
     5.2817   5.4046   5.4246   5.4363   5.4978   5.5305   5.5954   5.6392
     5.7474   5.7588   5.8221   5.9728   5.9919   6.0883   6.1217   6.2166
     6.3432   6.3841   6.4766   6.5044   6.5495   6.6110   6.6390   6.7682
     6.8142   6.8731   6.9080   7.0648   7.0792   7.1135   7.2112   7.3577

          k = 0.0000 0.3750 0.0000 ( 36494 PWs)   bands (ev):

    -7.8049  -7.6995  -7.5289  -7.2782  -6.9570  -6.7458  -6.6507  -6.5556
    -6.4412  -6.2578  -6.0609  -5.9497  -5.6547  -5.5198  -5.2807  -4.9952
    -4.8955  -4.5630  -4.4080  -4.2183  -3.9209  -3.8376  -3.5978  -3.3623
    -3.2442  -2.9875  -2.8125  -2.5884  -2.3874  -2.1564  -1.9600  -1.7310
    -1.5418  -1.3592  -1.2307  -1.0717  -0.8365  -0.8232  -0.7119  -0.5837
    -0.5460  -0.3982  -0.3454  -0.3221  -0.2565  -0.1700  -0.1488  -0.0919
     0.0265   0.1181   0.1487   0.1859   0.3965   0.4224   0.5272   0.5965
     0.6274   0.8233   0.8718   0.9928   1.0241   1.0847   1.1559   1.2673
     1.2978   1.3950   1.4196   1.5145   1.5362   1.5455   1.5990   1.8910
     1.9330   2.2403   2.3076   2.5727   2.6229   2.9463   3.1902   3.3846
     3.6335   3.9853   4.4829   4.5667   4.8995   5.2195   5.3167   5.3642
     5.4708   5.6370   5.8246   5.8758   6.0392   6.0742   6.2711   6.3920
     6.4325   6.4705   6.5429   6.6332   6.6388   6.7102   6.7637   6.7932
     6.8280   6.8840   6.8946   6.9711   7.0093   7.0668   7.1171   7.1781
     7.2284   7.3045   7.4336   7.4433   7.5420   7.5891   7.6202   7.6695

          k = 0.0000-0.5000 0.0000 ( 36470 PWs)   bands (ev):

    -7.3735  -7.3353  -7.2952  -7.2015  -7.1138  -7.0133  -6.8663  -6.7605
    -6.5476  -6.4429  -6.1610  -6.0725  -5.7288  -5.6519  -5.2678  -5.1934
    -4.7943  -4.7202  -4.3280  -4.2517  -3.8881  -3.7992  -3.4839  -3.3665
    -3.1072  -2.9445  -2.7224  -2.5194  -2.3100  -2.0805  -1.8719  -1.6220
    -1.4167  -1.1569  -0.9599  -0.7537  -0.6695  -0.6686  -0.6569  -0.6499
    -0.5388  -0.5041  -0.4687  -0.4414  -0.4063  -0.3339  -0.2205  -0.1817
    -0.1732  -0.1185  -0.0607  -0.0104   0.1654   0.2005   0.3205   0.3476
     0.6012   0.6840   0.7861   0.8191   1.0612   1.1099   1.2404   1.3262
     1.3469   1.4639   1.6166   1.6502   1.6618   1.8038   1.8665   1.9135
     1.9252   2.0883   2.1037   2.1121   2.1742   3.0380   3.2937   3.3291
     4.0259   4.0714   4.1305   4.6726   4.8671   5.1306   5.5346   5.6728
     5.7952   5.8819   5.9535   6.0083   6.0680   6.2769   6.2961   6.3803
     6.4652   6.6215   6.6426   6.7207   6.7486   6.8417   6.9823   7.0309
     7.0949   7.1864   7.2330   7.3305   7.4896   7.5958   7.5974   7.7368
     7.7829   7.8723   7.9182   7.9573   7.9793   8.0064   8.0628   8.0784

          k = 0.1250 0.1250 0.0000 ( 36515 PWs)   bands (ev):

    -8.2745  -8.1611  -7.9817  -7.7173  -7.3703  -6.9442  -6.4461  -5.8877
    -5.2968  -5.1948  -5.1929  -5.1173  -5.1152  -5.0537  -5.0342  -4.9983
    -4.9812  -4.7309  -4.5555  -4.5408  -3.9784  -3.4953  -3.4767  -3.4541
    -3.4099  -3.3866  -3.3621  -3.3535  -3.3160  -3.2168  -2.5362  -2.4443
    -2.4224  -1.8466  -1.1797  -0.6031  -0.5886  -0.5699  -0.4255  -0.4117
    -0.2537  -0.1828  -0.1168   0.0310   0.1334   0.1357   0.2298   0.2669
     0.4495   0.4524   0.4717   0.5385   0.5674   0.6480   0.6578   0.7116
     0.7380   0.7953   0.8247   0.8804   0.9350   0.9676   1.1427   1.1704
     1.3858   1.4243   1.6883   1.6919   1.9230   2.0581   2.2020   2.3619
     2.4698   2.8006   2.8812   2.8896   2.9238   2.9861   3.1385   3.2258
     3.4740   3.5167   4.3708   4.4455   4.4613   4.5016   4.6021   4.6739
     4.6840   4.8798   4.9350   5.1345   5.1880   5.2991   5.3679   5.4150
     5.4855   5.5527   5.5562   5.6404   5.8011   5.8613   5.9038   5.9708
     6.0516   6.1643   6.1904   6.2587   6.2789   6.3002   6.3618   6.4614
     6.5813   6.5831   6.7733   6.9249   6.9969   7.0223   7.1543   7.2078

          k = 0.1250 0.2500 0.0000 ( 36529 PWs)   bands (ev):

    -8.0732  -7.9622  -7.7863  -7.5271  -7.1882  -6.7747  -6.2989  -5.9924
    -5.9001  -5.8039  -5.7072  -5.5841  -5.4140  -5.2559  -5.1556  -5.1273
    -5.1029  -4.9135  -4.8098  -4.4496  -4.0088  -3.4408  -3.4160  -3.3951
    -3.3146  -3.2221  -3.0488  -2.8223  -2.7230  -2.5741  -2.4127  -2.2142
    -1.9661  -1.8930  -1.5328  -1.0048  -0.5955  -0.5853  -0.4902  -0.4235
    -0.4044  -0.3664  -0.2606  -0.1846  -0.1282  -0.0184   0.0970   0.1074
     0.2286   0.3658   0.4891   0.5197   0.6552   0.7135   0.7275   0.8454
     0.8873   0.8925   0.9298   0.9474   1.0357   1.0484   1.0775   1.1091
     1.1690   1.2226   1.4161   1.5405   1.5632   1.8754   2.0042   2.2666
     2.4670   2.5398   2.7308   2.7982   2.9275   2.9480   3.1141   3.1389
     3.4518   3.7216   4.5535   4.7996   4.8517   4.8678   4.8942   5.0026
     5.1627   5.2038   5.3546   5.4102   5.4764   5.5029   5.5869   5.7575
     5.7942   5.8496   5.9579   6.0397   6.1097   6.2209   6.2582   6.3230
     6.3599   6.4898   6.4987   6.6225   6.6949   6.7103   6.8039   6.8833
     6.9295   6.9847   7.0160   7.1203   7.1490   7.1857   7.2898   7.3313

          k = 0.1250 0.3750 0.0000 ( 36538 PWs)   bands (ev):

    -7.7405  -7.6359  -7.4672  -7.2197  -6.9034  -6.6902  -6.5990  -6.5084
    -6.3948  -6.2207  -6.0304  -5.9290  -5.6660  -5.5155  -5.3575  -5.1195
    -5.0144  -4.9066  -4.8682  -4.3721  -3.9608  -3.4853  -3.4617  -3.3684
    -3.2099  -3.0228  -2.9427  -2.6539  -2.5681  -2.3018  -2.1352  -1.9365
    -1.7161  -1.5666  -1.3618  -1.2892  -0.9643  -0.6365  -0.5968  -0.5745
    -0.5193  -0.4544  -0.4049  -0.3172  -0.1757  -0.0964   0.0347   0.1057
     0.1593   0.3163   0.3856   0.4398   0.4847   0.4921   0.6684   0.6928
     0.7638   0.8113   0.9169   0.9644   1.0849   1.1474   1.2251   1.2850
     1.4129   1.4274   1.4649   1.5609   1.5900   1.7253   1.8125   1.9745
     2.1115   2.2163   2.3495   2.4558   2.5863   3.0039   3.2319   3.2551
     3.5426   3.9866   4.7583   4.9939   5.0407   5.2932   5.3839   5.4241
     5.5215   5.7602   5.8524   5.8807   5.9125   5.9964   6.0110   6.1499
     6.1784   6.2211   6.3155   6.3694   6.4038   6.5364   6.6050   6.6300
     6.7215   6.8754   6.9330   6.9393   6.9955   7.0645   7.1861   7.2587
     7.3484   7.3879   7.4149   7.5404   7.6277   7.7386   7.7677   7.7700

          k = 0.1250-0.5000 0.0000 ( 36542 PWs)   bands (ev):

    -7.3097  -7.2744  -7.2337  -7.1429  -7.0558  -6.9588  -6.8135  -6.7128
    -6.5040  -6.4060  -6.1330  -6.0541  -5.7284  -5.6661  -5.3205  -5.2698
    -4.9616  -4.9279  -4.7789  -4.3064  -3.8261  -3.5411  -3.5117  -3.2790
    -3.2451  -2.9735  -2.9349  -2.6305  -2.5778  -2.2594  -2.1748  -1.8634
    -1.7392  -1.4395  -1.2888  -0.9979  -0.8456  -0.6694  -0.6464  -0.5782
    -0.5427  -0.5155  -0.4808  -0.3482  -0.3318  -0.3071  -0.1217  -0.0683
     0.1253   0.1900   0.3014   0.3252   0.4615   0.4843   0.6365   0.6902
     0.8495   0.8808   1.0246   1.0571   1.1628   1.2888   1.3830   1.4063
     1.4368   1.4995   1.5324   1.6036   1.7550   1.7911   1.8038   1.8844
     1.9317   2.0689   2.0797   2.1004   2.1741   2.9754   3.2535   3.3097
     3.9103   4.1341   4.5172   4.9625   5.1270   5.2496   5.5731   5.6844
     5.7566   5.8875   5.9664   5.9915   6.0793   6.1527   6.2293   6.3640
     6.4831   6.6150   6.6370   6.7388   6.8652   6.9590   6.9674   7.0523
     7.0937   7.1123   7.1545   7.1858   7.2667   7.3021   7.3501   7.4136
     7.4552   7.4666   7.4876   7.5756   7.6320   7.6714   7.7188   7.7277

          k = 0.2500 0.2500 0.0000 ( 36550 PWs)   bands (ev):

    -7.8752  -7.7668  -7.5952  -7.3429  -7.0151  -6.6191  -6.1735  -5.8596
    -5.8555  -5.8126  -5.7724  -5.7358  -5.6820  -5.6636  -5.6245  -5.5816
    -5.3375  -5.1947  -5.1392  -4.5565  -3.9793  -3.4872  -3.2397  -3.2326
    -3.1189  -3.0108  -2.9537  -2.7938  -2.7626  -2.6296  -2.5876  -2.4813
    -2.0726  -1.7143  -1.5948  -1.5212  -1.0884  -0.7274  -0.5816  -0.4382
    -0.1191  -0.0325  -0.0309  -0.0223  -0.0153   0.0182   0.0461   0.0463
     0.1030   0.2078   0.3303   0.4036   0.4641   0.6715   0.8520   0.8847
     1.0062   1.0892   1.1199   1.1219   1.2359   1.2619   1.2739   1.3091
     1.3286   1.4595   1.4915   1.6730   1.9341   1.9779   2.0623   2.2368
     2.4348   2.4681   2.5630   2.8695   3.0444   3.0661   3.0780   3.1487
     3.3456   3.8815   4.7491   4.9076   4.9455   5.0741   5.0962   5.1335
     5.1360   5.2700   5.4040   5.5242   5.5335   5.5994   5.6166   5.7229
     5.7330   5.8047   5.8944   6.0217   6.1518   6.3850   6.5111   6.5738
     6.7166   6.7241   6.7358   6.7528   6.8289   6.8596   6.9638   7.0014
     7.0205   7.2523   7.3672   7.4340   7.5043   7.5833   7.6520   7.7482

          k = 0.2500 0.3750 0.0000 ( 36587 PWs)   bands (ev):

    -7.5486  -7.4466  -7.2841  -7.0470  -6.7472  -6.5268  -6.4512  -6.3734
    -6.2704  -6.1273  -5.9694  -5.8989  -5.7621  -5.6698  -5.6548  -5.5333
    -5.4345  -5.3423  -5.2166  -4.7536  -3.8565  -3.4233  -3.2794  -3.2477
    -3.2247  -3.0595  -2.9994  -2.9545  -2.8315  -2.6694  -2.5617  -2.2831
    -2.1742  -1.9076  -1.7367  -1.4574  -1.3203  -1.0874  -0.8014  -0.6577
    -0.4658  -0.3037  -0.2349  -0.0835   0.0183   0.1642   0.3671   0.4110
     0.4948   0.5575   0.6658   0.7091   0.7559   0.8207   0.8550   1.0374
     1.0897   1.1397   1.2730   1.3401   1.3640   1.3952   1.4938   1.5065
     1.5257   1.6219   1.6706   1.7027   1.7571   1.8998   1.9638   2.0614
     2.2305   2.3687   2.4090   2.5436   2.6848   2.9783   3.1758   3.2563
     3.4874   4.0842   5.1864   5.3239   5.3844   5.4361   5.4920   5.5047
     5.5710   5.5895   5.6026   5.6430   5.7162   5.7543   5.8386   5.9143
     5.9611   6.0535   6.1188   6.3766   6.4379   6.5267   6.5779   6.7006
     6.7742   6.8388   6.8654   6.9087   6.9697   7.0059   7.0848   7.1338
     7.2712   7.2876   7.3688   7.4037   7.5685   7.6367   7.6795   7.6900

          k = 0.2500-0.5000 0.0000 ( 36648 PWs)   bands (ev):

    -7.1209  -7.0938  -7.0515  -6.9699  -6.8850  -6.7999  -6.6612  -6.5770
    -6.3840  -6.3081  -6.0692  -6.0200  -5.7633  -5.7386  -5.5231  -5.5078
    -5.4065  -5.3178  -5.2810  -4.8308  -3.7624  -3.2645  -3.2584  -3.2472
    -3.2447  -3.1579  -3.1232  -3.0189  -2.9381  -2.7050  -2.6278  -2.3014
    -2.2506  -1.8532  -1.8403  -1.4405  -1.3957  -1.0583  -1.0283  -0.8115
    -0.6317  -0.5577  -0.2880  -0.1515   0.1007   0.2547   0.4186   0.6038
     0.6393   0.8381   0.9307   0.9476   0.9653   0.9839   1.0325   1.0654
     1.2188   1.2643   1.2936   1.3291   1.4243   1.4468   1.5833   1.5903
     1.6195   1.7022   1.7265   1.8282   1.8939   1.9233   1.9895   2.0092
     2.0312   2.0617   2.1176   2.1335   2.2547   2.8742   3.2341   3.3121
     3.7467   4.2029   5.1132   5.5217   5.5731   5.6738   5.7156   5.7277
     5.7484   5.8067   5.8927   5.9462   5.9496   6.1064   6.2056   6.3672
     6.3926   6.4007   6.4353   6.4963   6.5350   6.5518   6.6508   6.7119
     6.7300   6.7585   6.8482   6.9002   6.9153   6.9594   6.9735   7.0960
     7.1764   7.1846   7.2310   7.2791   7.3161   7.3408   7.3989   7.4455

          k = 0.3750 0.3750 0.0000 ( 36668 PWs)   bands (ev):

    -7.2334  -7.1382  -6.9891  -6.7750  -6.5156  -6.2887  -6.2632  -6.2523
    -6.1783  -6.1675  -6.1162  -6.0855  -6.0547  -6.0264  -5.8793  -5.7308
    -5.6576  -5.5997  -5.5449  -5.1228  -3.8256  -3.3214  -3.3196  -3.2787
    -3.2646  -3.1256  -3.0853  -3.0296  -3.0108  -2.7813  -2.6589  -2.6404
    -2.3810  -2.3080  -2.2386  -1.8321  -1.4625  -1.3331  -1.1195  -0.9392
    -0.7218  -0.3255  -0.0338  -0.0195   0.1571   0.3915   0.4142   0.6775
     0.8465   0.9181   0.9528   1.1233   1.1847   1.3065   1.3374   1.4238
     1.4775   1.5193   1.5333   1.5437   1.5950   1.6515   1.6862   1.7202
     1.7848   1.8554   1.8690   1.8809   1.9735   2.0299   2.0631   2.1824
     2.2501   2.4265   2.5743   2.6837   2.7294   2.8471   3.2455   3.3157
     3.4713   4.1896   5.0335   5.2703   5.2951   5.3261   5.4593   5.5676
     5.6087   5.6308   5.6661   5.7577   5.8008   5.8469   5.8632   6.1103
     6.1299   6.2485   6.3902   6.4762   6.5697   6.7038   6.7384   6.8037
     6.8464   6.8510   6.9177   6.9585   6.9728   7.0118   7.0144   7.0223
     7.0251   7.0427   7.0729   7.0885   7.1416   7.1754   7.1808   7.2466

          k = 0.3750-0.5000 0.0000 ( 36642 PWs)   bands (ev):

    -6.8163  -6.7996  -6.7570  -6.6924  -6.6148  -6.5536  -6.4327  -6.3819
    -6.2319  -6.1961  -6.0525  -6.0378  -5.9553  -5.9424  -5.9308  -5.9137
    -5.8849  -5.7029  -5.6174  -5.2742  -3.8211  -3.3434  -3.3284  -3.3268
    -3.3006  -3.1064  -3.0557  -3.0412  -2.9816  -2.7848  -2.7445  -2.7101
    -2.6410  -2.3911  -2.2424  -1.9526  -1.8170  -1.6037  -1.3473  -1.0768
    -0.4635  -0.3353  -0.1189   0.1075   0.2480   0.4474   0.4944   0.6248
     0.8097   1.0092   1.1129   1.2234   1.2797   1.4011   1.5823   1.6733
     1.6796   1.7220   1.7476   1.7866   1.8019   1.8446   1.9408   1.9505
     2.0033   2.0263   2.0408   2.0645   2.1140   2.1348   2.1725   2.2125
     2.2334   2.2434   2.2772   2.4451   2.6380   2.7970   3.2403   3.3238
     3.5632   4.2148   5.2408   5.3379   5.3910   5.4244   5.5351   5.5970
     5.6772   5.7536   5.8566   5.9274   5.9289   5.9396   5.9543   6.0267
     6.0721   6.1254   6.2485   6.3279   6.4521   6.5382   6.5714   6.6630
     6.6876   6.7101   6.7402   6.7420   6.7542   6.7703   6.7828   6.8017
     6.8871   6.9085   6.9383   6.9694   6.9804   7.0488   7.1233   7.1492

          k =-0.5000-0.5000 0.0000 ( 36504 PWs)   bands (ev):

    -6.4610  -6.4175  -6.4032  -6.4007  -6.3872  -6.3797  -6.3182  -6.3153
    -6.2872  -6.2802  -6.2270  -6.2219  -6.1969  -6.1939  -6.1740  -6.1625
    -6.0805  -5.8648  -5.7384  -5.4358  -3.8547  -3.3951  -3.3808  -3.3800
    -3.3488  -3.1375  -3.0883  -3.0751  -2.9963  -2.7869  -2.6893  -2.6756
    -2.5615  -2.3938  -2.2739  -2.2703  -2.1771  -2.1266  -1.4226  -1.0802
    -0.3401  -0.0753  -0.0715  -0.0497   0.1241   0.4770   0.4972   0.5282
     0.7652   1.0994   1.1803   1.2060   1.4236   1.5187   1.6805   1.8352
     1.8446   1.9609   2.0608   2.1569   2.1617   2.1626   2.1663   2.2011
     2.2165   2.2188   2.2218   2.2418   2.2501   2.2651   2.2707   2.2806
     2.2912   2.3176   2.4254   2.6154   2.7524   2.8553   3.2236   3.3040
     3.4753   4.1862   5.0180   5.0805   5.2158   5.2290   5.3063   5.4685
     5.5380   5.6831   5.7190   5.7755   5.8622   5.8646   5.8957   5.9036
     5.9245   5.9383   5.9801   5.9898   6.0130   6.1396   6.5351   6.7322
     6.7492   6.7599   6.7775   6.7971   6.8717   6.8726   6.9011   6.9016
     6.9236   6.9670   6.9701   7.0733   7.1070   7.1576   7.1681   7.1936

          k =-0.1250 0.1250 0.0000 ( 36515 PWs)   bands (ev):

    -8.2745  -8.1610  -7.9816  -7.7172  -7.3703  -6.9444  -6.4469  -5.8894
    -5.2890  -5.2042  -5.1933  -5.1702  -5.1110  -5.0921  -5.0306  -5.0110
    -4.9880  -4.8987  -4.6771  -3.9173  -3.5484  -3.4784  -3.4774  -3.4140
    -3.4120  -3.3795  -3.3778  -3.3356  -3.2951  -3.2068  -3.1787  -3.0302
    -2.3678  -1.6943  -1.0596  -0.7221  -0.5806  -0.5532  -0.4773  -0.3731
    -0.3201  -0.1243  -0.0043   0.0310   0.1023   0.1987   0.2402   0.3465
     0.4227   0.4751   0.4787   0.5292   0.5841   0.6499   0.6692   0.6712
     0.7427   0.7968   0.8381   0.9282   0.9570   0.9808   1.1224   1.2572
     1.3305   1.5147   1.5956   1.7827   1.9281   2.1188   2.2751   2.3071
     2.6350   2.6982   2.6995   2.8113   2.9447   3.0644   3.2040   3.3010
     3.5044   3.5794   4.3787   4.4245   4.4875   4.5313   4.5671   4.7104
     4.7580   4.9099   4.9962   5.0128   5.1571   5.2038   5.2567   5.3733
     5.4119   5.4748   5.6018   5.6464   5.7612   5.8216   5.8708   5.8950
     6.0190   6.1295   6.2068   6.2199   6.2992   6.3207   6.3551   6.3904
     6.5079   6.6299   6.6968   6.7955   6.9439   7.0997   7.1366   7.2324

          k =-0.1250 0.2500 0.0000 ( 36529 PWs)   bands (ev):

    -8.0732  -7.9620  -7.7860  -7.5268  -7.1879  -6.7744  -6.2980  -5.9929
    -5.9038  -5.8033  -5.7222  -5.6084  -5.4363  -5.2715  -5.1836  -5.1565
    -5.0976  -5.0793  -4.6927  -4.0116  -3.6447  -3.4949  -3.4167  -3.3949
    -3.3496  -3.2563  -3.1005  -3.0295  -2.8229  -2.6020  -2.4821  -2.3962
    -2.3345  -1.9080  -1.3991  -0.9404  -0.6644  -0.5829  -0.5412  -0.4560
    -0.3818  -0.3439  -0.2922  -0.1198  -0.0837   0.0387   0.0847   0.1964
     0.2768   0.3582   0.5317   0.5839   0.7031   0.7182   0.7506   0.7830
     0.8849   0.9077   0.9257   0.9807   1.0286   1.0966   1.1134   1.1384
     1.1769   1.2353   1.4541   1.5481   1.7515   1.8772   2.0811   2.3100
     2.3936   2.6354   2.7167   2.7706   2.8379   2.8593   2.9558   3.4331
     3.5910   3.8316   4.5396   4.6431   4.7939   4.8606   4.8771   4.9052
     5.0231   5.1903   5.2647   5.4296   5.4609   5.5061   5.5503   5.7315
     5.7562   5.8614   5.8806   5.9997   6.0839   6.1155   6.2732   6.2943
     6.3186   6.4890   6.5027   6.5740   6.6773   6.7013   6.7955   6.8243
     6.9542   6.9989   7.0295   7.0786   7.1874   7.2465   7.2488   7.3529

          k =-0.1250 0.3750 0.0000 ( 36538 PWs)   bands (ev):

    -7.7405  -7.6356  -7.4666  -7.2187  -6.9013  -6.6904  -6.5986  -6.5068
    -6.4016  -6.2239  -6.0339  -5.9421  -5.6745  -5.5335  -5.3757  -5.1369
    -5.0502  -4.9966  -4.7121  -4.1820  -3.6655  -3.6062  -3.4744  -3.3840
    -3.2215  -3.1522  -2.9615  -2.7124  -2.6353  -2.3090  -2.2400  -1.9359
    -1.8050  -1.5816  -1.4141  -1.3165  -0.9556  -0.6386  -0.6171  -0.5809
    -0.5525  -0.4634  -0.3684  -0.2989  -0.1930  -0.0825   0.0006   0.0751
     0.1763   0.3476   0.4019   0.4132   0.4959   0.6010   0.6112   0.7243
     0.8771   0.8825   1.0081   1.0229   1.1214   1.2415   1.2905   1.3242
     1.3833   1.4403   1.4718   1.5794   1.6167   1.7230   1.7580   2.0115
     2.1636   2.1802   2.3524   2.4583   2.5420   2.8306   3.1275   3.3580
     4.0173   4.0676   4.3148   4.7464   5.0010   5.3399   5.4004   5.4225
     5.5303   5.5906   5.8503   5.8756   5.8943   5.9821   6.0304   6.0897
     6.1452   6.2118   6.2424   6.3618   6.4270   6.5032   6.5530   6.7350
     6.7860   6.8442   6.8957   6.9245   6.9887   7.0839   7.2138   7.2634
     7.3720   7.3920   7.4843   7.5574   7.6422   7.6516   7.6932   7.7400

          k =-0.2500 0.2500 0.0000 ( 36550 PWs)   bands (ev):

    -7.8752  -7.7664  -7.5945  -7.3420  -7.0137  -6.6164  -6.1647  -5.8692
    -5.8552  -5.8330  -5.7755  -5.7449  -5.7044  -5.6595  -5.6552  -5.6152
    -5.5427  -5.1919  -4.8617  -4.3647  -3.5619  -3.5513  -3.2414  -3.2065
    -3.1245  -3.0478  -2.9615  -2.8202  -2.7151  -2.6812  -2.6033  -2.5666
    -2.5126  -2.2468  -1.8130  -1.3951  -1.0072  -0.7024  -0.5627  -0.2952
    -0.2739  -0.0783  -0.0240  -0.0233  -0.0180  -0.0149   0.0417   0.0832
     0.2717   0.3504   0.4273   0.4484   0.5320   0.7240   0.9365   0.9460
     1.0122   1.1104   1.1932   1.2325   1.2483   1.2615   1.2982   1.3386
     1.3644   1.4352   1.6172   1.6586   1.8549   1.9479   2.1408   2.3120
     2.3979   2.4539   2.6892   2.7562   2.8545   3.0095   3.1328   3.3122
     3.9501   4.0381   4.2589   4.7536   4.9281   5.0403   5.0604   5.0779
     5.1229   5.1672   5.3356   5.3592   5.4653   5.4971   5.5469   5.6888
     5.6988   5.7746   5.8490   6.0733   6.1401   6.2374   6.4435   6.5509
     6.6100   6.6245   6.7023   6.7956   6.8585   6.8602   6.8871   6.9532
     7.1386   7.1665   7.2213   7.2843   7.5366   7.5750   7.6595   7.6730

          k =-0.2500 0.3750 0.0000 ( 36587 PWs)   bands (ev):

    -7.5486  -7.4460  -7.2827  -7.0443  -6.7411  -6.5270  -6.4477  -6.3696
    -6.2874  -6.1378  -5.9669  -5.9355  -5.7849  -5.6832  -5.6388  -5.6124
    -5.5563  -5.2173  -5.0677  -4.6815  -3.6725  -3.4124  -3.2565  -3.2368
    -3.2142  -3.0387  -3.0012  -2.9546  -2.8397  -2.7251  -2.6339  -2.3746
    -2.2596  -2.0127  -1.8545  -1.7525  -1.4307  -1.0732  -0.7281  -0.6985
    -0.3320  -0.3041  -0.2038  -0.0976   0.1320   0.2102   0.3679   0.4570
     0.4997   0.5798   0.6911   0.7568   0.7850   0.9174   0.9385   1.1243
     1.1403   1.1623   1.2754   1.3031   1.3678   1.3840   1.4899   1.5055
     1.5316   1.6117   1.6800   1.7298   1.8047   1.8323   1.9267   2.1307
     2.2917   2.3658   2.4692   2.6664   2.7365   2.7609   3.1208   3.2766
     3.9851   4.1324   4.5881   5.2082   5.3272   5.3587   5.4409   5.4896
     5.5018   5.5480   5.5734   5.6709   5.6964   5.7447   5.8606   5.9501
     5.9814   6.0486   6.1045   6.1843   6.2959   6.4406   6.6419   6.7040
     6.7316   6.7521   6.8209   6.8558   6.9102   7.0209   7.0622   7.1662
     7.3037   7.3060   7.3479   7.4898   7.5121   7.6072   7.6276   7.6619

          k =-0.3750 0.3750 0.0000 ( 36668 PWs)   bands (ev):

    -7.2334  -7.1369  -6.9856  -6.7677  -6.4975  -6.2793  -6.2633  -6.2419
    -6.2084  -6.1666  -6.1503  -6.0873  -6.0577  -6.0364  -5.9445  -5.8829
    -5.6477  -5.4603  -5.4208  -5.1086  -3.7710  -3.3334  -3.2974  -3.2691
    -3.2577  -3.1076  -3.0869  -3.0035  -2.9342  -2.7590  -2.6769  -2.5714
    -2.4034  -2.2895  -2.2631  -2.1828  -1.8568  -1.4426  -1.1005  -0.9209
    -0.5631  -0.0926  -0.0102   0.0159   0.2157   0.4339   0.5624   0.6295
     0.8488   0.8516   0.9037   1.0331   1.2151   1.3032   1.3340   1.3747
     1.5324   1.5340   1.5568   1.5940   1.6052   1.6655   1.6774   1.7073
     1.8080   1.8452   1.8549   1.9169   1.9746   2.0157   2.0306   2.1897
     2.3680   2.5326   2.6577   2.7581   2.7911   2.8011   3.1854   3.2237
     3.7016   4.1663   5.0906   5.1347   5.2674   5.3111   5.4187   5.4931
     5.6055   5.6271   5.6289   5.7130   5.7510   5.7796   5.9256   5.9541
     6.0484   6.1277   6.3144   6.3860   6.4582   6.5716   6.6912   6.7533
     6.8027   6.8304   6.8486   6.8774   6.9435   6.9619   7.0057   7.0131
     7.0137   7.0190   7.0671   7.0943   7.0955   7.1193   7.1587   7.1687

     the Fermi energy is     3.4178 ev

!    total energy              =   -1868.59406109 Ry
     Harris-Foulkes estimate   =   -1868.59406109 Ry
     estimated scf accuracy    <          5.7E-09 Ry

     total all-electron energy =    -23202.428660 Ry

     The total energy is the sum of the following terms:

     one-electron contribution =   -1822.14790793 Ry
     hartree contribution      =     974.37010421 Ry
     xc contribution           =    -196.07998997 Ry
     ewald contribution        =     647.97351996 Ry
     one-center paw contrib.   =   -1472.70447208 Ry
     smearing contrib. (-TS)   =      -0.00531529 Ry

     convergence has been achieved in  19 iterations

     negative rho (up, down):  2.387E-07 0.000E+00

     Forces acting on atoms (cartesian axes, Ry/au):

     atom    1 type  1   force =    -0.00000476   -0.00000476    0.00001170
     atom    2 type  1   force =    -0.00000373   -0.00000357    0.00000786
     atom    3 type  1   force =    -0.00000357   -0.00000373    0.00000786
     atom    4 type  1   force =    -0.00000500   -0.00000500   -0.00000535
     atom    5 type  1   force =    -0.00000569   -0.00000569    0.00000797
     atom    6 type  1   force =    -0.00000857    0.00000143   -0.00000012
     atom    7 type  1   force =     0.00000143   -0.00000857   -0.00000012
     atom    8 type  1   force =    -0.00000439   -0.00000439    0.00000722
     atom    9 type  1   force =    -0.00000293   -0.00000293    0.00000198
     atom   10 type  1   force =    -0.00000185   -0.00000156   -0.00000494
     atom   11 type  1   force =    -0.00000156   -0.00000185   -0.00000494
     atom   12 type  1   force =    -0.00000300   -0.00000300   -0.00001339
     atom   13 type  1   force =    -0.00000064   -0.00000064   -0.00000539
     atom   14 type  1   force =    -0.00000439    0.00000185   -0.00000271
     atom   15 type  1   force =     0.00000185   -0.00000439   -0.00000271
     atom   16 type  1   force =    -0.00000478   -0.00000478   -0.00000567
     atom   17 type  1   force =     0.00000031    0.00000031    0.00001308
     atom   18 type  1   force =     0.00000156    0.00000177    0.00001245
     atom   19 type  1   force =     0.00000177    0.00000156    0.00001245
     atom   20 type  1   force =     0.00000036    0.00000036   -0.00000151
     atom   21 type  1   force =     0.00000428    0.00000428    0.00001557
     atom   22 type  1   force =     0.00000229    0.00000151   -0.00000319
     atom   23 type  1   force =     0.00000151    0.00000229   -0.00000319
     atom   24 type  1   force =    -0.00000296   -0.00000296    0.00001541
     atom   25 type  1   force =     0.00000224    0.00000224   -0.00001723
     atom   26 type  1   force =     0.00000241    0.00000270   -0.00000057
     atom   27 type  1   force =     0.00000270    0.00000241   -0.00000057
     atom   28 type  1   force =     0.00000222    0.00000222   -0.00001367
     atom   29 type  1   force =     0.00000156    0.00000156   -0.00001302
     atom   30 type  1   force =     0.00000484    0.00000050    0.00000888
     atom   31 type  1   force =     0.00000050    0.00000484    0.00000888
     atom   32 type  1   force =     0.00000316    0.00000316   -0.00001315
     atom   33 type  1   force =     0.00000322    0.00000322    0.00000328
     atom   34 type  1   force =     0.00000260    0.00000234   -0.00000625
     atom   35 type  1   force =     0.00000234    0.00000260   -0.00000625
     atom   36 type  1   force =     0.00000326    0.00000326    0.00001364
     atom   37 type  1   force =     0.00000130    0.00000130    0.00000176
     atom   38 type  1   force =     0.00000403    0.00000081   -0.00001401
     atom   39 type  1   force =     0.00000081    0.00000403   -0.00001401
     atom   40 type  1   force =     0.00000527    0.00000527    0.00000199

     Total force =     0.000065     Total SCF correction =     0.000157
     SCF correction compared to forces is large: reduce conv_thr to get better values


     Computing stress (Cartesian axis) and pressure


     negative rho (up, down):  2.387E-07 0.000E+00
          total   stress  (Ry/bohr**3)                   (kbar)     P=    1.53
   0.00001708   0.00003774   0.00000035          2.51      5.55      0.05
   0.00003774   0.00001708   0.00000035          5.55      2.51      0.05
   0.00000035   0.00000035  -0.00000289          0.05      0.05     -0.43


     Writing output data file Si.Fd-3m_5ML.save/
 
     init_run     :      5.34s CPU      6.23s WALL (       1 calls)
     electrons    :    816.80s CPU    885.15s WALL (       1 calls)
     forces       :      1.70s CPU      1.88s WALL (       1 calls)
     stress       :     11.32s CPU     13.15s WALL (       1 calls)

     Called by init_run:
     wfcinit      :      3.95s CPU      4.03s WALL (       1 calls)
     potinit      :      0.91s CPU      1.61s WALL (       1 calls)
     hinit0       :      0.34s CPU      0.36s WALL (       1 calls)

     Called by electrons:
     c_bands      :    721.19s CPU    776.31s WALL (      20 calls)
     sum_band     :     36.78s CPU     41.87s WALL (      20 calls)
     v_of_rho     :      2.83s CPU      2.88s WALL (      20 calls)
     newd         :      0.36s CPU      0.45s WALL (      20 calls)
     PAW_pot      :      4.57s CPU      8.58s WALL (      20 calls)
     mix_rho      :     48.10s CPU     48.33s WALL (      20 calls)

     Called by c_bands:
     init_us_2    :      1.63s CPU      1.66s WALL (      86 calls)
     ccgdiagg     :    616.91s CPU    619.57s WALL (      40 calls)
     wfcrot       :     55.00s CPU     55.43s WALL (      38 calls)

     Called by sum_band:
     sum_band:bec :      0.00s CPU      0.01s WALL (      40 calls)
     addusdens    :      1.90s CPU      3.64s WALL (      20 calls)

     Called by *cgdiagg:
     h_psi        :    341.88s CPU    343.48s WALL (   11448 calls)
     s_psi        :    184.45s CPU    184.85s WALL (   22858 calls)
     cdiaghg      :      0.16s CPU      0.16s WALL (      38 calls)

     Called by h_psi:
     h_psi:pot    :    341.03s CPU    342.59s WALL (   11448 calls)
     h_psi:calbec :     98.18s CPU     98.45s WALL (   11448 calls)
     vloc_psi     :    148.71s CPU    149.93s WALL (   11448 calls)
     add_vuspsi   :     93.97s CPU     94.15s WALL (   11448 calls)
     hs_1psi      :    385.10s CPU    386.40s WALL (   11410 calls)
     s_1psi       :    184.65s CPU    185.43s WALL (   11410 calls)

     General routines
     calbec       :    195.14s CPU    196.18s WALL (   22908 calls)
     fft          :      2.42s CPU      2.47s WALL (     246 calls)
     ffts         :     25.46s CPU     25.89s WALL (    2628 calls)
     fftw         :    136.89s CPU    138.10s WALL (   36900 calls)
 
     Parallel routines
     fft_scatt_xy :     37.37s CPU     37.62s WALL (   39774 calls)
     fft_scatt_yz :     34.37s CPU     34.82s WALL (   39774 calls)
 
     PWSCF        :  13m55.84s CPU  17m19.64s WALL

 
   This run was terminated on:   4:48:32   4Sep2021            

=------------------------------------------------------------------------------=
   JOB DONE.
=------------------------------------------------------------------------------=
Note: The following floating-point exceptions are signalling:Note: The following floating-point exceptions are signalling: IEEE_UNDERFLOW_FLAG IEEE_DENORMAL
Note: The following floating-point exceptions are signalling: IEEE_UNDERFLOW_FLAG IEEE_DENORMAL
 IEEE_UNDERFLOW_FLAG IEEE_DENORMAL
Note: The following floating-point exceptions are signalling: IEEE_UNDERFLOW_FLAG IEEE_DENORMAL
