
     Program PWSCF v.6.4.1 starts on  4Sep2021 at 17:24: 2 

     This program is part of the open-source Quantum ESPRESSO suite
     for quantum simulation of materials; please cite
         "P. Giannozzi et al., J. Phys.:Condens. Matter 21 395502 (2009);
         "P. Giannozzi et al., J. Phys.:Condens. Matter 29 465901 (2017);
          URL http://www.quantum-espresso.org", 
     in publications or presentations arising from this work. More details at
     http://www.quantum-espresso.org/quote

     Parallel version (MPI), running on    60 processors

     MPI processes distributed on    15 nodes
     K-points division:     npool     =      15
     R & G space division:  proc/nbgrp/npool/nimage =       4
     Reading input from Si.Fd-3m_6ML.scf.in

     Current dimensions of program PWSCF are:
     Max number of different atomic species (ntypx) = 10
     Max number of k-points (npk) =  40000
     Max angular momentum in pseudopotentials (lmaxx) =  3
               file Si.pbe-nl-kjpaw_psl.1.0.0.UPF: wavefunction(s)  3S 3P renormalized

     Subspace diagonalization in iterative solution of the eigenvalue problem:
     a serial algorithm will be used

     Message from routine setup:
     DEPRECATED: symmetry with ibrav=0, use correct ibrav instead
 
     Parallelization info
     --------------------
     sticks:   dense  smooth     PW     G-vecs:    dense   smooth      PW
     Min         369     369    106                80775    80775   12689
     Max         371     371    108                80785    80785   12704
     Sum        1481    1481    429               323121   323121   50789
 

     Title: 
     Relaxation of atomic positions for single monolayer slab of Si using PBE   


     bravais-lattice index     =            0
     lattice parameter (alat)  =      10.2803  a.u.
     unit-cell volume          =    8257.1760 (a.u.)^3
     number of atoms/cell      =           48
     number of atomic types    =            1
     number of electrons       =       192.00
     number of Kohn-Sham states=          144
     kinetic-energy cutoff     =      45.0000  Ry
     charge density cutoff     =     175.0000  Ry
     convergence threshold     =      1.0E-08
     mixing beta               =       0.5000
     number of iterations used =            8  local-TF  mixing
     Exchange-correlation      = SLA PW PBX PBC ( 1  4  3  4 0 0)

     celldm(1)=  10.280305  celldm(2)=   0.000000  celldm(3)=   0.000000
     celldm(4)=   0.000000  celldm(5)=   0.000000  celldm(6)=   0.000000

     crystal axes: (cart. coord. in units of alat)
               a(1) = (   1.000000   0.000000   0.000000 )  
               a(2) = (   0.000000   1.000000   0.000000 )  
               a(3) = (   0.000000   0.000000   7.600000 )  

     reciprocal axes: (cart. coord. in units 2 pi/alat)
               b(1) = (  1.000000  0.000000  0.000000 )  
               b(2) = (  0.000000  1.000000  0.000000 )  
               b(3) = (  0.000000  0.000000  0.131579 )  


     PseudoPot. # 1 for Si read from file:
     /share/pseudo/Si.pbe-nl-kjpaw_psl.1.0.0.UPF
     MD5 check sum: 3686bff6734aab787fb18a3c8374d51f
     Pseudo is Projector augmented-wave + core cor, Zval =  4.0
     Generated using "atomic" code by A. Dal Corso v.6.3
     Shape of augmentation charge: PSQ
     Using radial grid of 1141 points,  4 beta functions with: 
                l(1) =   0
                l(2) =   0
                l(3) =   1
                l(4) =   1
     Q(r) pseudized with 0 coefficients 


     atomic species   valence    mass     pseudopotential
        Si             4.00    28.08600     Si( 1.00)

      2 Sym. Ops. (no inversion) found



   Cartesian axes

     site n.     atom                  positions (alat units)
         1           Si  tau(   1) = (   0.0020055   0.0020055   0.7944230  )
         2           Si  tau(   2) = (   0.0019909   0.5019779   1.2992560  )
         3           Si  tau(   3) = (   0.5019779   0.0019909   1.2992560  )
         4           Si  tau(   4) = (   0.5020142   0.5020142   0.8003833  )
         5           Si  tau(   5) = (   0.2507091   0.2507091   1.0477223  )
         6           Si  tau(   6) = (   0.2520457   0.7519194   1.5500424  )
         7           Si  tau(   7) = (   0.7519194   0.2520457   1.5500424  )
         8           Si  tau(   8) = (   0.7533158   0.7533158   1.0477413  )
         9           Si  tau(   9) = (   0.0019761   0.0019761   1.8024821  )
        10           Si  tau(  10) = (   0.0019660   0.5019625   2.3073279  )
        11           Si  tau(  11) = (   0.5019625   0.0019660   2.3073279  )
        12           Si  tau(  12) = (   0.5019724   0.5019724   1.8026454  )
        13           Si  tau(  13) = (   0.2519510   0.2519510   2.0548881  )
        14           Si  tau(  14) = (   0.2519482   0.7519728   2.5597202  )
        15           Si  tau(  15) = (   0.7519728   0.2519482   2.5597202  )
        16           Si  tau(  16) = (   0.7519953   0.7519953   2.0548870  )
        17           Si  tau(  17) = (   0.0019505   0.0019505   2.8120742  )
        18           Si  tau(  18) = (   0.0019350   0.5019323   3.3167443  )
        19           Si  tau(  19) = (   0.5019323   0.0019350   3.3167443  )
        20           Si  tau(  20) = (   0.5019460   0.5019460   2.8119624  )
        21           Si  tau(  21) = (   0.2519982   0.2519982   3.0644015  )
        22           Si  tau(  22) = (   0.2517990   0.7520578   3.5691656  )
        23           Si  tau(  23) = (   0.7520578   0.2517990   3.5691656  )
        24           Si  tau(  24) = (   0.7518929   0.7518929   3.0643991  )
        25           Si  tau(  25) = (   0.0019134   0.0019134   3.8219495  )
        26           Si  tau(  26) = (   0.0018922   0.5018892   4.3263620  )
        27           Si  tau(  27) = (   0.5018892   0.0018922   4.3263620  )
        28           Si  tau(  28) = (   0.5019099   0.5019099   3.8211438  )
        29           Si  tau(  29) = (   0.2522368   0.2522368   4.0739779  )
        30           Si  tau(  30) = (   0.2510187   0.7527493   4.5787676  )
        31           Si  tau(  31) = (   0.7527493   0.2510187   4.5787676  )
        32           Si  tau(  32) = (   0.7515777   0.7515777   4.0739777  )
        33           Si  tau(  33) = (   0.0018589   0.0018589   4.8337232  )
        34           Si  tau(  34) = (   0.0018407   0.5018376   5.3357302  )
        35           Si  tau(  35) = (   0.5018376   0.0018407   5.3357302  )
        36           Si  tau(  36) = (   0.5018554   0.5018554   4.8284667  )
        37           Si  tau(  37) = (   0.2539646   0.2539646   5.0834500  )
        38           Si  tau(  38) = (   0.2457012   0.7579641   5.5878748  )
        39           Si  tau(  39) = (   0.7579641   0.2457012   5.5878748  )
        40           Si  tau(  40) = (   0.7497375   0.7497375   5.0834498  )
        41           Si  tau(  41) = (   0.0017974   0.0017974   5.8586720  )
        42           Si  tau(  42) = (   0.0017389   0.5017093   6.3498246  )
        43           Si  tau(  43) = (   0.5017093   0.0017389   6.3498246  )
        44           Si  tau(  44) = (   0.5017964   0.5017964   5.8216689  )
        45           Si  tau(  45) = (   0.2653766   0.2653766   6.0941433  )
        46           Si  tau(  46) = (   0.1487951   0.8546331   6.5428227  )
        47           Si  tau(  47) = (   0.8546331   0.1487951   6.5428227  )
        48           Si  tau(  48) = (   0.7382030   0.7382030   6.0941586  )

     number of k points=    21  gaussian smearing, width (Ry)=  0.0100
                       cart. coord. in units 2pi/alat
        k(    1) = (   0.0000000   0.0000000   0.0000000), wk =   0.0312500
        k(    2) = (   0.0000000   0.1250000   0.0000000), wk =   0.1250000
        k(    3) = (   0.0000000   0.2500000   0.0000000), wk =   0.1250000
        k(    4) = (   0.0000000   0.3750000   0.0000000), wk =   0.1250000
        k(    5) = (   0.0000000  -0.5000000   0.0000000), wk =   0.0625000
        k(    6) = (   0.1250000   0.1250000   0.0000000), wk =   0.0625000
        k(    7) = (   0.1250000   0.2500000   0.0000000), wk =   0.1250000
        k(    8) = (   0.1250000   0.3750000   0.0000000), wk =   0.1250000
        k(    9) = (   0.1250000  -0.5000000   0.0000000), wk =   0.1250000
        k(   10) = (   0.2500000   0.2500000   0.0000000), wk =   0.0625000
        k(   11) = (   0.2500000   0.3750000   0.0000000), wk =   0.1250000
        k(   12) = (   0.2500000  -0.5000000   0.0000000), wk =   0.1250000
        k(   13) = (   0.3750000   0.3750000   0.0000000), wk =   0.0625000
        k(   14) = (   0.3750000  -0.5000000   0.0000000), wk =   0.1250000
        k(   15) = (  -0.5000000  -0.5000000   0.0000000), wk =   0.0312500
        k(   16) = (  -0.1250000   0.1250000   0.0000000), wk =   0.0625000
        k(   17) = (  -0.1250000   0.2500000   0.0000000), wk =   0.1250000
        k(   18) = (  -0.1250000   0.3750000   0.0000000), wk =   0.1250000
        k(   19) = (  -0.2500000   0.2500000   0.0000000), wk =   0.0625000
        k(   20) = (  -0.2500000   0.3750000   0.0000000), wk =   0.1250000
        k(   21) = (  -0.3750000   0.3750000   0.0000000), wk =   0.0625000

     Dense  grid:   323121 G-vectors     FFT dimensions: (  45,  45, 360)

     Estimated max dynamical RAM per process >     240.12 MB

     Estimated total dynamical RAM >      14.07 GB

     Initial potential from superposition of free atoms

     starting charge  191.97316, renormalised to  192.00000

     negative rho (up, down):  4.915E-06 0.000E+00
     Starting wfcs are  192 randomized atomic wfcs
     Checking if some PAW data can be deallocated... 

     total cpu time spent up to now is        9.7 secs

     Self-consistent Calculation

     iteration #  1     ecut=    45.00 Ry     beta= 0.50
     CG style diagonalization
     ethr =  1.00E-02,  avg # of iterations =  3.4

     Threshold (ethr) on eigenvalues was too large:
     Diagonalizing with lowered threshold

     CG style diagonalization
     ethr =  7.59E-04,  avg # of iterations =  2.2

     total cpu time spent up to now is      154.0 secs

     total energy              =   -2242.50034298 Ry
     Harris-Foulkes estimate   =   -2242.68054442 Ry
     estimated scf accuracy    <       1.46155066 Ry

     iteration #  2     ecut=    45.00 Ry     beta= 0.50
     CG style diagonalization
     ethr =  7.61E-04,  avg # of iterations =  3.0

     total cpu time spent up to now is      208.4 secs

     total energy              =   -2242.34600504 Ry
     Harris-Foulkes estimate   =   -2242.53324089 Ry
     estimated scf accuracy    <       0.71948221 Ry

     iteration #  3     ecut=    45.00 Ry     beta= 0.50
     CG style diagonalization
     ethr =  3.75E-04,  avg # of iterations =  3.0

     total cpu time spent up to now is      263.9 secs

     total energy              =   -2242.39574691 Ry
     Harris-Foulkes estimate   =   -2242.39732824 Ry
     estimated scf accuracy    <       0.05708400 Ry

     iteration #  4     ecut=    45.00 Ry     beta= 0.50
     CG style diagonalization
     c_bands:  3 eigenvalues not converged
     c_bands:  5 eigenvalues not converged
     ethr =  2.97E-05,  avg # of iterations =  5.8

     total cpu time spent up to now is      441.3 secs

     total energy              =   -2242.40992279 Ry
     Harris-Foulkes estimate   =   -2242.41037980 Ry
     estimated scf accuracy    <       0.01740376 Ry

     iteration #  5     ecut=    45.00 Ry     beta= 0.50
     CG style diagonalization
     c_bands:  2 eigenvalues not converged
     c_bands:  5 eigenvalues not converged
     ethr =  9.06E-06,  avg # of iterations =  3.6

     total cpu time spent up to now is      516.9 secs

     total energy              =   -2242.40876555 Ry
     Harris-Foulkes estimate   =   -2242.41050315 Ry
     estimated scf accuracy    <       0.01421708 Ry

     iteration #  6     ecut=    45.00 Ry     beta= 0.50
     CG style diagonalization
     ethr =  7.40E-06,  avg # of iterations =  3.1

     total cpu time spent up to now is      575.1 secs

     total energy              =   -2242.40885332 Ry
     Harris-Foulkes estimate   =   -2242.40931804 Ry
     estimated scf accuracy    <       0.00858972 Ry

     iteration #  7     ecut=    45.00 Ry     beta= 0.50
     CG style diagonalization
     c_bands:  1 eigenvalues not converged
     ethr =  4.47E-06,  avg # of iterations =  3.1

     total cpu time spent up to now is      634.2 secs

     total energy              =   -2242.40903171 Ry
     Harris-Foulkes estimate   =   -2242.40916502 Ry
     estimated scf accuracy    <       0.00269559 Ry

     iteration #  8     ecut=    45.00 Ry     beta= 0.50
     CG style diagonalization
     c_bands:  1 eigenvalues not converged
     c_bands:  3 eigenvalues not converged
     ethr =  1.40E-06,  avg # of iterations =  3.8

     total cpu time spent up to now is      715.0 secs

     total energy              =   -2242.40909486 Ry
     Harris-Foulkes estimate   =   -2242.40917558 Ry
     estimated scf accuracy    <       0.00151001 Ry

     iteration #  9     ecut=    45.00 Ry     beta= 0.50
     CG style diagonalization
     ethr =  7.86E-07,  avg # of iterations =  3.0

     negative rho (up, down):  1.455E-03 0.000E+00

     total cpu time spent up to now is      774.2 secs

     total energy              =   -2242.40914978 Ry
     Harris-Foulkes estimate   =   -2242.40916150 Ry
     estimated scf accuracy    <       0.00111905 Ry

     iteration # 10     ecut=    45.00 Ry     beta= 0.50
     CG style diagonalization
     ethr =  5.83E-07,  avg # of iterations =  3.0

     negative rho (up, down):  2.008E-03 0.000E+00

     total cpu time spent up to now is      845.1 secs

     total energy              =   -2242.40918311 Ry
     Harris-Foulkes estimate   =   -2242.40918170 Ry
     estimated scf accuracy    <       0.00038870 Ry

     iteration # 11     ecut=    45.00 Ry     beta= 0.50
     CG style diagonalization
     ethr =  2.02E-07,  avg # of iterations =  3.1

     negative rho (up, down):  2.441E-04 0.000E+00

     total cpu time spent up to now is      915.8 secs

     total energy              =   -2242.40915799 Ry
     Harris-Foulkes estimate   =   -2242.40921386 Ry
     estimated scf accuracy    <       0.00013884 Ry

     iteration # 12     ecut=    45.00 Ry     beta= 0.50
     CG style diagonalization
     ethr =  7.23E-08,  avg # of iterations =  3.1

     total cpu time spent up to now is      983.9 secs

     total energy              =   -2242.40915947 Ry
     Harris-Foulkes estimate   =   -2242.40916806 Ry
     estimated scf accuracy    <       0.00004191 Ry

     iteration # 13     ecut=    45.00 Ry     beta= 0.50
     CG style diagonalization
     ethr =  2.18E-08,  avg # of iterations =  3.3

     total cpu time spent up to now is     1057.6 secs

     total energy              =   -2242.40916640 Ry
     Harris-Foulkes estimate   =   -2242.40916617 Ry
     estimated scf accuracy    <       0.00000979 Ry

     iteration # 14     ecut=    45.00 Ry     beta= 0.50
     CG style diagonalization
     ethr =  5.10E-09,  avg # of iterations =  3.2

     total cpu time spent up to now is     1129.2 secs

     total energy              =   -2242.40916671 Ry
     Harris-Foulkes estimate   =   -2242.40916752 Ry
     estimated scf accuracy    <       0.00000356 Ry

     iteration # 15     ecut=    45.00 Ry     beta= 0.50
     CG style diagonalization
     ethr =  1.85E-09,  avg # of iterations =  3.1

     negative rho (up, down):  1.004E-08 0.000E+00

     total cpu time spent up to now is     1199.3 secs

     total energy              =   -2242.40916720 Ry
     Harris-Foulkes estimate   =   -2242.40916707 Ry
     estimated scf accuracy    <       0.00000039 Ry

     iteration # 16     ecut=    45.00 Ry     beta= 0.50
     CG style diagonalization
     ethr =  2.01E-10,  avg # of iterations =  3.8

     negative rho (up, down):  2.902E-07 0.000E+00

     total cpu time spent up to now is     1293.0 secs

     total energy              =   -2242.40916729 Ry
     Harris-Foulkes estimate   =   -2242.40916735 Ry
     estimated scf accuracy    <       0.00000026 Ry

     iteration # 17     ecut=    45.00 Ry     beta= 0.50
     CG style diagonalization
     ethr =  1.37E-10,  avg # of iterations =  3.2

     negative rho (up, down):  2.037E-07 0.000E+00

     total cpu time spent up to now is     1367.8 secs

     total energy              =   -2242.40916732 Ry
     Harris-Foulkes estimate   =   -2242.40916734 Ry
     estimated scf accuracy    <       0.00000006 Ry

     iteration # 18     ecut=    45.00 Ry     beta= 0.50
     CG style diagonalization
     ethr =  3.02E-11,  avg # of iterations =  3.1

     negative rho (up, down):  1.027E-07 0.000E+00

     total cpu time spent up to now is     1428.5 secs

     total energy              =   -2242.40916732 Ry
     Harris-Foulkes estimate   =   -2242.40916733 Ry
     estimated scf accuracy    <       0.00000001 Ry

     iteration # 19     ecut=    45.00 Ry     beta= 0.50
     CG style diagonalization
     ethr =  7.41E-12,  avg # of iterations =  3.4

     negative rho (up, down):  7.813E-08 0.000E+00

     total cpu time spent up to now is     1490.3 secs

     End of self-consistent calculation

          k = 0.0000 0.0000 0.0000 ( 42019 PWs)   bands (ev):

    -8.0784  -7.9840  -7.8564  -7.6695  -7.4238  -7.1204  -6.7612  -6.3496
    -5.8903  -5.3881  -4.8466  -4.2701  -3.9929  -3.9924  -3.9920  -3.9919
    -3.9637  -3.9478  -3.9407  -3.9397  -3.9286  -3.9213  -3.8965  -3.8900
    -3.8879  -3.8806  -3.8511  -3.8502  -3.8405  -3.8365  -3.8178  -3.8148
    -3.7732  -3.6476  -3.5892  -3.0191  -2.6999  -2.6980  -2.3684  -1.7080
    -1.0436  -0.3838  -0.2065   0.0180   0.0240   0.0249   0.0419   0.1481
     0.1999   0.2037   0.2554   0.2727   0.4212   0.4248   0.4294   0.5131
     0.6337   0.6699   0.6716   0.7662   0.8222   0.8444   0.8615   0.9958
     1.0171   1.0183   1.0217   1.1290   1.1309   1.1650   1.2704   1.2721
     1.4358   1.4558   1.6059   1.6315   1.6837   1.8730   1.9569   2.1638
     2.2059   2.2737   2.4922   2.6280   2.7532   2.8414   3.0041   3.1634
     3.1919   3.1941   3.2365   3.3664   3.5140   3.5386   3.5969   3.6808
     3.7154   3.9476   4.4490   4.4527   4.5692   4.5898   4.6302   4.6315
     4.6665   4.6922   4.7334   4.7895   4.9541   5.0152   5.0362   5.0627
     5.1726   5.2353   5.2424   5.3557   5.5295   5.5525   5.6453   5.6468
     5.8619   5.8639   5.9100   5.9434   6.0631   6.0785   6.2129   6.2850
     6.3382   6.3861   6.4665   6.5402   6.6416   6.7027   6.7382   6.7450
     6.9538   6.9952   7.0999   7.1108   7.2920   7.3666   7.3680   7.4781

          k = 0.0000 0.1250 0.0000 ( 42054 PWs)   bands (ev):

    -8.0107  -7.9167  -7.7899  -7.6039  -7.3596  -7.0581  -6.7015  -6.2934
    -5.8392  -5.3446  -4.8965  -4.8403  -4.8039  -4.7300  -4.6380  -4.5287
    -4.4117  -4.3004  -4.2306  -4.1999  -4.1215  -4.0508  -3.9787  -3.8984
    -3.8065  -3.7012  -3.6427  -3.5826  -3.4546  -3.3250  -3.2057  -3.1101
    -3.0526  -3.0326  -2.9978  -2.9887  -2.6030  -2.4487  -2.3268  -1.7397
    -1.1276  -0.5409  -0.3335  -0.3207  -0.2314  -0.1371  -0.0404   0.0976
     0.1304   0.2380   0.3889   0.4817   0.5051   0.5332   0.6074   0.6624
     0.6910   0.7216   0.7907   0.8255   0.8272   0.8298   0.8606   0.9172
     0.9400   0.9541   0.9570   0.9759   1.0948   1.1094   1.1182   1.2236
     1.2651   1.3076   1.3246   1.5217   1.5543   1.7920   1.8037   1.8712
     2.1418   2.1850   2.3117   2.5147   2.5939   2.7426   2.8878   3.0245
     3.1180   3.1601   3.2178   3.3584   3.3652   3.4351   3.4795   3.5975
     3.8070   3.9744   4.5282   4.7533   4.7616   4.8270   4.8311   4.9377
     4.9546   4.9667   5.0094   5.0906   5.1422   5.1808   5.2300   5.3104
     5.3846   5.4200   5.5573   5.6035   5.6639   5.7347   5.7566   5.8447
     5.9059   6.0028   6.0424   6.1954   6.2292   6.3107   6.3438   6.4621
     6.5097   6.5559   6.5923   6.6199   6.6561   6.7042   6.7398   6.8764
     6.9530   7.0400   7.1085   7.2334   7.3250   7.3845   7.4368   7.5538

          k = 0.0000 0.2500 0.0000 ( 42022 PWs)   bands (ev):

    -7.8081  -7.7158  -7.5913  -7.4085  -7.1687  -6.8736  -6.5260  -6.1315
    -5.7177  -5.7010  -5.6141  -5.5115  -5.3857  -5.2430  -5.1645  -5.0185
    -4.8191  -4.6810  -4.5945  -4.3975  -4.2116  -4.1443  -4.0343  -3.8697
    -3.7044  -3.6068  -3.5271  -3.3420  -3.1501  -3.0637  -2.9173  -2.7157
    -2.5728  -2.4446  -2.2815  -2.1575  -2.0598  -1.9781  -1.7829  -1.7778
    -1.3226  -0.8480  -0.5119  -0.5015  -0.4180  -0.3186  -0.2871  -0.1304
    -0.0613   0.0959   0.2132   0.2573   0.3935   0.4060   0.4305   0.5396
     0.5558   0.6103   0.6477   0.6955   0.7439   0.8114   0.9436   0.9549
     0.9813   1.0496   1.0553   1.0805   1.1244   1.1364   1.1716   1.2215
     1.2422   1.2649   1.3032   1.3274   1.4162   1.4628   1.5895   1.6060
     1.6618   1.9740   1.9841   2.0924   2.3567   2.3932   2.4896   2.7003
     2.8489   2.9701   3.1110   3.2291   3.2903   3.3300   3.4161   3.6270
     3.9105   4.1004   4.5689   4.9863   5.0793   5.1078   5.3953   5.4016
     5.4705   5.5237   5.6015   5.7476   5.7539   5.8009   5.8619   5.8796
     5.9057   5.9718   6.0425   6.0617   6.1182   6.1549   6.2058   6.2705
     6.3030   6.4351   6.4590   6.5441   6.6689   6.7041   6.7527   6.7887
     6.8230   6.8451   6.9117   6.9688   7.0470   7.0752   7.1415   7.2014
     7.2815   7.3327   7.3501   7.4204   7.4377   7.5061   7.5582   7.6333

          k = 0.0000 0.3750 0.0000 ( 42036 PWs)   bands (ev):

    -7.4728  -7.3849  -7.2658  -7.0894  -6.8597  -6.5826  -6.4159  -6.3325
    -6.2659  -6.1770  -6.0481  -5.8881  -5.7964  -5.6119  -5.4246  -5.3244
    -5.0562  -4.9582  -4.7375  -4.5130  -4.4236  -4.1472  -4.0273  -3.8639
    -3.6166  -3.5477  -3.3467  -3.1404  -3.0554  -2.8377  -2.6837  -2.5227
    -2.3317  -2.1678  -1.9782  -1.8065  -1.6151  -1.4515  -1.2647  -1.1146
    -0.9749  -0.8530  -0.7619  -0.5173  -0.5079  -0.4366  -0.3332  -0.3076
    -0.1577  -0.0782  -0.0254  -0.0218   0.0226   0.1015   0.1316   0.1673
     0.2505   0.3066   0.3368   0.4477   0.4796   0.5950   0.6383   0.6398
     0.8170   0.8537   0.9473   1.0082   1.0344   1.2102   1.2190   1.2914
     1.3521   1.4137   1.4818   1.5694   1.5732   1.6377   1.6928   1.7448
     1.8030   1.8303   1.8856   1.9006   1.9349   2.1210   2.2059   2.3617
     2.5213   2.6649   2.8029   2.9634   3.0024   3.3701   3.5474   3.7517
     4.0040   4.3422   4.7567   4.9415   5.1371   5.4487   5.5586   5.5991
     5.6653   5.8821   5.9756   6.0346   6.1267   6.2262   6.2645   6.5086
     6.5423   6.6794   6.7436   6.7598   6.7947   6.8838   6.9630   6.9656
     7.0001   7.0543   7.0651   7.0813   7.1364   7.1715   7.2129   7.2301
     7.3379   7.3479   7.4062   7.4409   7.4644   7.5651   7.5794   7.6424
     7.6641   7.6835   7.7684   7.8834   7.9256   7.9929   8.0530   8.0631

          k = 0.0000-0.5000 0.0000 ( 41950 PWs)   bands (ev):

    -7.0243  -7.0062  -6.9769  -6.9020  -6.8469  -6.7644  -6.6694  -6.5836
    -6.4452  -6.3565  -6.1727  -6.0843  -5.8550  -5.7749  -5.5039  -5.4313
    -5.1285  -5.0590  -4.7377  -4.6699  -4.3423  -4.2767  -3.9544  -3.8887
    -3.5846  -3.5120  -3.2375  -3.1493  -2.9125  -2.7965  -2.5928  -2.4455
    -2.2596  -2.0887  -1.9073  -1.7210  -1.5370  -1.3402  -1.1530  -0.9524
    -0.7641  -0.5770  -0.3883  -0.3529  -0.3436  -0.3410  -0.3392  -0.2901
    -0.1862  -0.1810  -0.1706  -0.1291  -0.0624  -0.0441   0.0423   0.0554
     0.0726   0.1642   0.1860   0.2065   0.3320   0.3392   0.3898   0.4107
     0.5837   0.6648   0.7536   0.7744   0.9877   1.0314   1.1418   1.1912
     1.3937   1.4292   1.5270   1.5381   1.6774   1.7721   1.8179   1.9082
     1.9430   1.9589   2.0262   2.1331   2.1674   2.2516   2.2754   2.3537
     2.3746   2.4571   2.4766   2.4874   2.5333   3.5422   3.5691   3.6863
     4.4292   4.4501   4.4628   4.9878   5.1093   5.3267   5.6282   5.8627
     6.0404   6.1977   6.2205   6.2328   6.2442   6.3132   6.5081   6.5107
     6.6249   6.6491   6.7719   6.7838   6.9684   7.0097   7.0115   7.0927
     7.1633   7.1732   7.2379   7.3034   7.4078   7.4398   7.5701   7.6089
     7.6904   7.8070   7.8432   7.9407   8.0680   8.0930   8.0961   8.1868
     8.1892   8.2774   8.2851   8.3531   8.3558   8.4063   8.4259   8.4582

          k = 0.1250 0.1250 0.0000 ( 42045 PWs)   bands (ev):

    -7.9433  -7.8498  -7.7237  -7.5388  -7.2961  -6.9967  -6.6430  -6.2389
    -5.7900  -5.3039  -4.8641  -4.8625  -4.8321  -4.7977  -4.7838  -4.7333
    -4.7198  -4.6768  -4.6666  -4.6357  -4.6158  -4.3749  -4.1498  -4.1460
    -3.6857  -3.1631  -3.1452  -3.1370  -3.0847  -3.0774  -3.0461  -3.0322
    -3.0145  -2.9984  -2.9957  -2.9443  -2.4614  -2.0663  -2.0400  -1.8778
    -1.3028  -0.7428  -0.2680  -0.2644  -0.2372  -0.1412  -0.1343   0.0220
     0.0337   0.1205   0.2665   0.3104   0.3619   0.3982   0.5301   0.5449
     0.5956   0.7300   0.7838   0.7889   0.8112   0.8438   0.9383   0.9440
     0.9563   1.0154   1.0361   1.0436   1.0758   1.1243   1.1990   1.2122
     1.2736   1.2957   1.3832   1.3908   1.5634   1.6781   1.7815   1.8329
     2.0435   2.1160   2.2745   2.3466   2.5658   2.6189   2.6832   2.9944
     3.0361   3.2668   3.3149   3.3214   3.3341   3.3711   3.4955   3.6141
     3.8309   3.8775   4.7000   4.7344   4.7421   4.7985   4.8671   4.8938
     4.9288   5.0894   5.1266   5.2892   5.3028   5.3928   5.4113   5.5640
     5.6024   5.7380   5.8063   5.8861   5.9062   5.9422   6.0005   6.0645
     6.0679   6.1538   6.1869   6.2508   6.3278   6.4609   6.4733   6.5034
     6.5727   6.6138   6.6795   6.7272   6.7837   6.7999   6.8679   6.8854
     6.9788   7.0769   7.2599   7.3407   7.3578   7.4004   7.4789   7.6934

          k = 0.1250 0.2500 0.0000 ( 42095 PWs)   bands (ev):

    -7.7418  -7.6500  -7.5265  -7.3450  -7.1073  -6.8151  -6.4716  -6.0829
    -5.6740  -5.6563  -5.5709  -5.4743  -5.3609  -5.2344  -5.1475  -5.0523
    -4.9226  -4.8237  -4.7726  -4.7655  -4.6604  -4.5577  -4.4093  -4.0645
    -3.6928  -3.1721  -3.0875  -3.0750  -3.0308  -2.9831  -2.8865  -2.7349
    -2.6102  -2.5178  -2.3255  -2.1562  -2.1348  -2.0475  -1.7289  -1.5650
    -1.4864  -1.1304  -0.6832  -0.2738  -0.2665  -0.2313  -0.1268  -0.1122
    -0.0799   0.0101   0.0639   0.0900   0.2199   0.2265   0.2629   0.3470
     0.4834   0.5323   0.5897   0.7392   0.8162   0.8438   0.8901   1.0472
     1.0525   1.1298   1.1759   1.1994   1.2358   1.2535   1.2591   1.3138
     1.3355   1.3623   1.3903   1.4055   1.4744   1.4913   1.6080   1.6450
     1.7352   1.8934   1.9491   2.1584   2.2957   2.5162   2.6673   2.8297
     2.8900   3.0297   3.1521   3.2359   3.2976   3.3256   3.4918   3.5430
     3.7829   4.0786   4.8354   5.0598   5.1341   5.1697   5.1840   5.2960
     5.3311   5.4381   5.5022   5.6103   5.6786   5.7361   5.7922   5.8544
     5.8775   6.0400   6.1026   6.1633   6.2144   6.2880   6.3188   6.3831
     6.4041   6.4359   6.5570   6.6464   6.7479   6.8213   6.8469   6.8986
     6.9351   6.9998   7.0861   7.1069   7.1123   7.1244   7.2376   7.2779
     7.3507   7.3644   7.4001   7.4983   7.5548   7.6452   7.7020   7.7762

          k = 0.1250 0.3750 0.0000 ( 42068 PWs)   bands (ev):

    -7.4084  -7.3210  -7.2033  -7.0289  -6.8024  -6.5298  -6.3600  -6.2797
    -6.2173  -6.1287  -6.0045  -5.8530  -5.7625  -5.5945  -5.4097  -5.3318
    -5.1079  -4.9753  -4.8735  -4.7088  -4.5772  -4.5434  -4.4873  -4.0089
    -3.6081  -3.2139  -3.1449  -3.0754  -2.9710  -2.8490  -2.7816  -2.5886
    -2.4579  -2.3244  -2.0957  -2.0353  -1.7509  -1.7059  -1.4465  -1.3398
    -1.1643  -1.0106  -0.9468  -0.7236  -0.3609  -0.3107  -0.2575  -0.2560
    -0.1598  -0.1390  -0.1074   0.0198   0.0719   0.1027   0.2264   0.3266
     0.4514   0.4750   0.5572   0.6138   0.7203   0.7958   0.8077   0.8126
     0.9041   0.9632   1.0438   1.0642   1.1444   1.2109   1.2641   1.3120
     1.4099   1.4199   1.5699   1.6159   1.6670   1.7104   1.7275   1.8182
     1.8712   1.9231   1.9513   2.0163   2.1077   2.2749   2.3401   2.4381
     2.6245   2.6498   2.7129   2.9077   2.9365   3.4323   3.5916   3.6337
     3.8805   4.3438   5.0484   5.3004   5.3861   5.5074   5.6668   5.6950
     5.8045   5.8537   6.0432   6.0577   6.1763   6.1849   6.2860   6.2949
     6.3904   6.4275   6.4796   6.5438   6.5740   6.6108   6.6477   6.7263
     6.7519   6.8467   6.9132   7.0003   7.0156   7.1041   7.2139   7.2931
     7.3152   7.3504   7.3845   7.4679   7.5146   7.5592   7.6262   7.6887
     7.7882   7.8520   7.9382   7.9681   8.0339   8.0848   8.1237   8.2211

          k = 0.1250-0.5000 0.0000 ( 42070 PWs)   bands (ev):

    -6.9612  -6.9452  -6.9147  -6.8425  -6.7876  -6.7076  -6.6135  -6.5311
    -6.3947  -6.3105  -6.1305  -6.0479  -5.8258  -5.7536  -5.4956  -5.4341
    -5.1552  -5.1021  -4.8273  -4.7848  -4.5600  -4.5232  -4.4220  -3.9503
    -3.4485  -3.2360  -3.2131  -3.0307  -3.0039  -2.7935  -2.7639  -2.5269
    -2.4921  -2.2347  -2.1864  -1.9213  -1.8476  -1.5894  -1.4818  -1.2385
    -1.0991  -0.8711  -0.7135  -0.5048  -0.3525  -0.3274  -0.3230  -0.2438
    -0.2226  -0.1832  -0.0932  -0.0906  -0.0826   0.0193   0.0824   0.1012
     0.2690   0.3207   0.4797   0.5672   0.5894   0.6512   0.7373   0.7830
     0.8767   0.9710   1.0508   1.0775   1.2161   1.2832   1.3916   1.4230
     1.4834   1.6012   1.6740   1.7076   1.7351   1.7832   1.8236   1.9038
     1.9528   2.0046   2.0474   2.0822   2.1359   2.2455   2.2818   2.3146
     2.3334   2.4560   2.4629   2.4792   2.5290   3.4382   3.5732   3.6668
     4.2801   4.4916   4.9042   5.3003   5.3981   5.5009   5.7397   5.8543
     6.0603   6.1875   6.2059   6.2391   6.2590   6.3113   6.3444   6.4950
     6.5701   6.6644   6.7205   6.7726   6.9282   7.0196   7.0703   7.1561
     7.2151   7.2634   7.2937   7.3540   7.4186   7.4322   7.4886   7.5273
     7.5637   7.5960   7.6191   7.6746   7.6948   7.7028   7.7579   7.7728
     7.8285   7.8896   7.9437   7.9820   8.0346   8.0422   8.0871   8.1480

          k = 0.2500 0.2500 0.0000 ( 42090 PWs)   bands (ev):

    -7.5436  -7.4536  -7.3332  -7.1563  -6.9253  -6.6430  -6.3139  -5.9472
    -5.5772  -5.5236  -5.5223  -5.4547  -5.4525  -5.3913  -5.3842  -5.3350
    -5.3108  -5.2928  -5.2602  -5.0804  -4.9815  -4.7842  -4.6994  -4.1964
    -3.6151  -3.2153  -2.9353  -2.9158  -2.8763  -2.7431  -2.7328  -2.5953
    -2.5390  -2.4544  -2.3389  -2.3382  -2.2364  -2.2217  -2.0380  -1.6779
    -1.3152  -1.2807  -1.1650  -0.8589  -0.4343  -0.3938  -0.2074   0.0357
     0.1015   0.3009   0.3020   0.3077   0.3084   0.3618   0.3705   0.3709
     0.4016   0.4597   0.4775   0.5212   0.5891   0.7100   0.8214   0.9669
     1.0328   1.1602   1.1899   1.3753   1.4024   1.4375   1.4391   1.5264
     1.5613   1.5710   1.6227   1.6304   1.6364   1.6993   1.7125   1.8553
     1.8668   2.0580   2.2803   2.2813   2.3461   2.5334   2.6618   2.7520
     2.8040   2.9012   3.0726   3.3061   3.4393   3.4463   3.5036   3.5484
     3.6136   4.2387   5.0739   5.2001   5.2820   5.3515   5.3745   5.3877
     5.3887   5.5143   5.5719   5.7012   5.7441   5.8316   5.8466   5.8958
     5.9117   5.9300   6.0312   6.1249   6.1723   6.3091   6.3255   6.3609
     6.5622   6.6180   6.8377   6.8934   6.9223   6.9854   7.1053   7.1314
     7.1607   7.1749   7.2315   7.2458   7.2664   7.3220   7.3969   7.4895
     7.4925   7.7606   7.7986   7.7990   7.9188   7.9591   7.9964   8.1287

          k = 0.2500 0.3750 0.0000 ( 42131 PWs)   bands (ev):

    -7.2165  -7.1308  -7.0172  -6.8497  -6.6335  -6.3760  -6.1954  -6.1279
    -6.0775  -5.9938  -5.8879  -5.7642  -5.6859  -5.5759  -5.4455  -5.3701
    -5.3386  -5.3095  -5.2974  -5.0790  -5.0528  -4.9396  -4.8261  -4.3976
    -3.4723  -3.1017  -2.9830  -2.9337  -2.9293  -2.8183  -2.7431  -2.7324
    -2.6013  -2.5360  -2.5001  -2.3723  -2.2159  -2.0870  -1.8753  -1.7716
    -1.5040  -1.4853  -1.1133  -1.0641  -0.8506  -0.5847  -0.4849  -0.2229
    -0.1842   0.0019   0.1361   0.1469   0.2058   0.3845   0.5512   0.5986
     0.7404   0.7687   0.8581   0.9201   0.9972   1.0680   1.1017   1.1178
     1.1753   1.1941   1.3505   1.4559   1.4620   1.5468   1.6049   1.6773
     1.7157   1.7373   1.7718   1.8042   1.8361   1.9175   1.9583   2.0167
     2.0382   2.0667   2.0937   2.1754   2.2610   2.3753   2.4733   2.5712
     2.7058   2.7577   2.8205   2.9535   3.0448   3.4363   3.5195   3.6134
     3.8248   4.4417   5.5388   5.6492   5.6952   5.7227   5.7709   5.8403
     5.8638   5.8683   5.9056   5.9116   5.9705   5.9969   6.0835   6.1135
     6.1688   6.1947   6.2239   6.2525   6.3444   6.4397   6.6252   6.6943
     6.8055   6.8658   6.9552   7.0582   7.0770   7.1119   7.1389   7.1907
     7.2075   7.2503   7.3772   7.4119   7.4510   7.4810   7.5880   7.6591
     7.6837   7.7331   7.7768   7.8831   7.9133   7.9665   8.0177   8.0540

          k = 0.2500-0.5000 0.0000 ( 42176 PWs)   bands (ev):

    -6.7747  -6.7639  -6.7298  -6.6664  -6.6124  -6.5408  -6.4501  -6.3789
    -6.2500  -6.1805  -6.0154  -5.9518  -5.7575  -5.7099  -5.5016  -5.4711
    -5.2780  -5.2594  -5.1159  -5.1085  -5.0498  -4.9605  -4.8967  -4.4747
    -3.3656  -2.9395  -2.9341  -2.9306  -2.9254  -2.8270  -2.8216  -2.8106
    -2.7614  -2.6450  -2.5753  -2.3829  -2.3181  -2.0534  -2.0066  -1.6814
    -1.6646  -1.3220  -1.2818  -0.9806  -0.8993  -0.6720  -0.6235  -0.4578
    -0.3267  -0.2782  -0.0550   0.0502   0.2721   0.4060   0.5918   0.7337
     0.8251   1.0229   1.0524   1.1794   1.2144   1.2648   1.2926   1.3037
     1.3648   1.4118   1.4574   1.5091   1.5293   1.5927   1.6700   1.6988
     1.7429   1.7932   1.8217   1.8882   1.9489   2.0066   2.0623   2.0701
     2.1111   2.1699   2.2470   2.2823   2.3238   2.3367   2.3509   2.3850
     2.4199   2.4474   2.4907   2.5083   2.6108   3.3137   3.5796   3.6692
     4.1057   4.5606   5.5178   5.8767   5.9255   6.0083   6.0283   6.0326
     6.0521   6.0867   6.1291   6.1539   6.1918   6.2611   6.3051   6.3998
     6.4857   6.6368   6.7187   6.7203   6.7299   6.7696   6.8210   6.8342
     6.9057   6.9342   6.9624   6.9976   7.1041   7.1234   7.1530   7.1844
     7.2277   7.2378   7.2958   7.3244   7.3609   7.3779   7.4644   7.5017
     7.5590   7.6267   7.6629   7.6746   7.6903   7.7398   7.7544   7.7860

          k = 0.3750 0.3750 0.0000 ( 42180 PWs)   bands (ev):

    -6.9009  -6.8198  -6.7154  -6.5623  -6.3691  -6.1479  -5.9470  -5.9315
    -5.9263  -5.8613  -5.8569  -5.8096  -5.7888  -5.7495  -5.7132  -5.7025
    -5.6624  -5.6071  -5.4046  -5.3748  -5.2507  -5.1901  -5.1888  -4.7667
    -3.4286  -3.0091  -3.0090  -2.9590  -2.9453  -2.8324  -2.7968  -2.7888
    -2.7779  -2.6833  -2.5290  -2.5014  -2.4150  -2.2154  -2.1789  -2.0686
    -1.9140  -1.9122  -1.6742  -1.2736  -1.0668  -0.8659  -0.7634  -0.5567
    -0.4183  -0.0977   0.2554   0.2761   0.3174   0.5728   0.6255   0.7722
     0.9971   1.0082   1.1664   1.2632   1.3252   1.4461   1.5298   1.5893
     1.6621   1.6751   1.7086   1.8308   1.8553   1.8676   1.8711   1.9223
     1.9546   1.9725   2.0178   2.0565   2.1059   2.1107   2.1375   2.2059
     2.2300   2.2539   2.2765   2.3700   2.4287   2.4942   2.5332   2.5864
     2.7364   2.8684   2.9753   3.0561   3.0821   3.2790   3.6108   3.6726
     3.8136   4.5473   5.3822   5.5297   5.6090   5.6368   5.7491   5.8729
     5.8866   5.9120   5.9450   5.9466   6.0107   6.0438   6.1000   6.2236
     6.2687   6.2929   6.3789   6.5575   6.5597   6.6505   6.7887   6.8851
     6.9148   7.0550   7.0815   7.0949   7.1585   7.2157   7.2371   7.2620
     7.2853   7.2969   7.3205   7.3307   7.3447   7.3475   7.3701   7.3973
     7.3995   7.4198   7.4623   7.4636   7.4803   7.5211   7.5689   7.5809

          k = 0.3750-0.5000 0.0000 ( 42186 PWs)   bands (ev):

    -6.4734  -6.4683  -6.4303  -6.3819  -6.3322  -6.2769  -6.1958  -6.1472
    -6.0380  -5.9978  -5.8726  -5.8433  -5.7242  -5.7100  -5.6275  -5.6206
    -5.6001  -5.5848  -5.5758  -5.5576  -5.5118  -5.3471  -5.2139  -4.9181
    -3.4141  -3.0232  -3.0174  -3.0132  -3.0056  -2.8334  -2.8115  -2.7905
    -2.7726  -2.5815  -2.5475  -2.5084  -2.4837  -2.3355  -2.3236  -2.2128
    -2.0982  -1.8537  -1.7387  -1.4822  -1.3827  -1.2205  -0.9700  -0.7211
    -0.1594  -0.0768   0.1434   0.3263   0.4522   0.6892   0.7004   0.7418
     0.9232   1.1453   1.1942   1.2400   1.4266   1.5573   1.6603   1.7416
     1.7539   1.9063   2.0054   2.0064   2.0659   2.0915   2.0997   2.1424
     2.1566   2.2049   2.2161   2.2434   2.3259   2.3386   2.3698   2.3974
     2.4070   2.4308   2.4637   2.4745   2.5056   2.5388   2.5498   2.5715
     2.5870   2.5975   2.6437   2.8437   2.9940   3.2271   3.5981   3.6806
     3.9150   4.5723   5.5737   5.6474   5.6776   5.6925   5.8120   5.8923
     5.9679   6.0340   6.0728   6.1495   6.2028   6.2595   6.2608   6.2852
     6.3236   6.3276   6.4057   6.4127   6.4785   6.5644   6.6566   6.7593
     6.8155   6.9178   6.9232   7.0008   7.0283   7.0323   7.0490   7.0652
     7.0739   7.0762   7.0779   7.0952   7.1568   7.1841   7.2062   7.2358
     7.2489   7.2802   7.3100   7.3430   7.3708   7.4252   7.4611   7.5158

          k =-0.5000-0.5000 0.0000 ( 42128 PWs)   bands (ev):

    -6.1063  -6.0735  -6.0702  -6.0690  -6.0623  -6.0445  -6.0011  -5.9985
    -5.9787  -5.9783  -5.9267  -5.9255  -5.9008  -5.8914  -5.8498  -5.8494
    -5.8386  -5.8333  -5.8198  -5.7986  -5.6983  -5.5088  -5.3274  -5.0796
    -3.4437  -3.0786  -3.0713  -3.0707  -3.0521  -2.8786  -2.8519  -2.8402
    -2.7897  -2.6092  -2.5541  -2.5340  -2.4485  -2.2862  -2.2006  -2.1808
    -2.0785  -1.9560  -1.8713  -1.8695  -1.7940  -1.7600  -1.0449  -0.7241
     0.0050   0.2091   0.2106   0.2191   0.3628   0.6462   0.6587   0.6678
     0.8824   1.1617   1.2054   1.2147   1.4428   1.6887   1.7816   1.7867
     1.8743   1.9715   2.1536   2.2826   2.2829   2.3717   2.4361   2.4950
     2.4960   2.4966   2.4976   2.5372   2.5410   2.5423   2.5459   2.5722
     2.5802   2.5824   2.5880   2.6005   2.6051   2.6351   2.6380   2.6457
     2.6636   2.6728   2.7689   3.0257   3.1814   3.2111   3.5882   3.6623
     3.8198   4.5427   5.3415   5.3824   5.4645   5.4715   5.5810   5.7633
     5.7747   5.8994   5.9046   5.9885   6.1146   6.1702   6.1878   6.2161
     6.2496   6.2531   6.2605   6.2749   6.2914   6.3050   6.3351   6.3621
     6.3675   6.5871   6.8907   7.0759   7.0786   7.0835   7.0943   7.1066
     7.1763   7.1771   7.1966   7.1967   7.2091   7.2128   7.2539   7.3129
     7.3329   7.3571   7.4100   7.4233   7.4460   7.5075   7.5198   7.5885

          k =-0.1250 0.1250 0.0000 ( 42045 PWs)   bands (ev):

    -7.9433  -7.8498  -7.7236  -7.5387  -7.2960  -6.9966  -6.6430  -6.2391
    -5.7908  -5.3051  -4.8645  -4.8627  -4.8304  -4.8080  -4.7835  -4.7787
    -4.7236  -4.7117  -4.6564  -4.6528  -4.6335  -4.5157  -4.2851  -3.6153
    -3.2518  -3.1453  -3.1452  -3.0869  -3.0860  -3.0442  -3.0395  -3.0268
    -3.0163  -2.9801  -2.9584  -2.8445  -2.8185  -2.7688  -2.3183  -1.7419
    -1.1782  -0.6439  -0.3672  -0.2617  -0.2467  -0.1524  -0.1063  -0.0810
     0.0737   0.1476   0.3161   0.3505   0.3656   0.4255   0.5042   0.5814
     0.7152   0.7207   0.7569   0.7907   0.8213   0.8620   0.9184   0.9405
     0.9663   1.0026   1.0380   1.0503   1.0528   1.1258   1.2108   1.2325
     1.3176   1.3446   1.3819   1.3958   1.5384   1.7289   1.8054   1.8531
     1.9634   2.2439   2.2848   2.3250   2.5584   2.6621   2.8512   2.8885
     3.0884   3.1059   3.2131   3.2582   3.3200   3.5026   3.6068   3.6702
     3.8752   3.9348   4.7035   4.7240   4.7496   4.8186   4.8296   4.9420
     4.9656   5.1395   5.1409   5.2998   5.3565   5.3741   5.4276   5.4449
     5.5689   5.6321   5.7336   5.7509   5.8931   5.9086   5.9564   6.0272
     6.1114   6.1891   6.1960   6.2521   6.2791   6.3133   6.4127   6.5624
     6.5935   6.5958   6.6575   6.7137   6.7270   6.8000   6.8115   6.8929
     6.9960   7.0427   7.0830   7.3104   7.4339   7.4359   7.4685   7.6150

          k =-0.1250 0.2500 0.0000 ( 42095 PWs)   bands (ev):

    -7.7418  -7.6499  -7.5263  -7.3448  -7.1069  -6.8147  -6.4710  -6.0821
    -5.6714  -5.6561  -5.5739  -5.4830  -5.3714  -5.2391  -5.1669  -5.0777
    -4.9416  -4.8365  -4.7887  -4.7448  -4.7075  -4.7031  -4.3090  -3.6665
    -3.3734  -3.1048  -3.0860  -3.0591  -3.0212  -2.9881  -2.9222  -2.8736
    -2.7276  -2.5395  -2.4063  -2.3275  -2.1688  -2.0410  -1.9642  -1.8994
    -1.4455  -1.0175  -0.6206  -0.3252  -0.2672  -0.2418  -0.1838  -0.1021
    -0.0671  -0.0322   0.0850   0.1175   0.1933   0.2316   0.3778   0.4005
     0.4646   0.5855   0.6741   0.7132   0.7713   0.8976   1.0205   1.0554
     1.0622   1.0898   1.1711   1.2213   1.2426   1.2522   1.2702   1.2875
     1.3387   1.3583   1.3955   1.4811   1.4950   1.5213   1.5998   1.6431
     1.8366   1.8617   2.1254   2.1750   2.3390   2.5428   2.7001   2.8101
     2.8986   3.1256   3.1386   3.1719   3.2088   3.2395   3.3212   3.8177
     3.9734   4.1885   4.8307   5.0224   5.0421   5.1486   5.1615   5.1856
     5.3069   5.3748   5.4690   5.5343   5.6018   5.6774   5.7571   5.8712
     5.9282   6.0102   6.1093   6.1368   6.1864   6.2501   6.2972   6.3153
     6.3438   6.4271   6.4899   6.6294   6.8043   6.8186   6.8282   6.8997
     6.9488   6.9550   6.9862   7.0206   7.0820   7.1653   7.2217   7.3355
     7.3602   7.3980   7.4267   7.4746   7.5803   7.6347   7.7133   7.7761

          k =-0.1250 0.3750 0.0000 ( 42068 PWs)   bands (ev):

    -7.4084  -7.3209  -7.2028  -7.0282  -6.8013  -6.5277  -6.3601  -6.2792
    -6.2154  -6.1321  -6.0080  -5.8519  -5.7718  -5.6005  -5.4147  -5.3464
    -5.1179  -4.9941  -4.8900  -4.7193  -4.6387  -4.5986  -4.3431  -3.8267
    -3.3258  -3.2727  -3.1449  -3.0797  -2.9816  -2.9498  -2.8074  -2.5994
    -2.5647  -2.3191  -2.2064  -2.0216  -1.8420  -1.7087  -1.4864  -1.3863
    -1.1776  -1.0524  -1.0060  -0.7076  -0.3870  -0.3001  -0.2678  -0.2544
    -0.1996  -0.1187  -0.0856   0.0039   0.0480   0.1200   0.2532   0.3319
     0.3767   0.4653   0.5681   0.6576   0.7237   0.7711   0.8032   0.8556
     0.9152   1.0184   1.0412   1.1005   1.2229   1.2484   1.3434   1.3765
     1.4192   1.5835   1.6004   1.6237   1.6802   1.7132   1.7342   1.8376
     1.8776   1.9391   1.9650   2.0160   2.0857   2.2525   2.3450   2.5062
     2.6194   2.6554   2.6995   2.8967   2.9078   3.2551   3.4846   3.7158
     4.4179   4.4249   4.6812   5.0444   5.2616   5.5365   5.6578   5.6868
     5.7945   5.9055   5.9613   6.0741   6.1235   6.1744   6.1988   6.3064
     6.3585   6.4198   6.4574   6.5075   6.5507   6.6091   6.6616   6.7020
     6.7378   6.8682   6.8860   6.9370   7.1028   7.1522   7.2221   7.2698
     7.3126   7.3531   7.3814   7.4634   7.4832   7.6334   7.6752   7.7093
     7.7852   7.8586   7.9131   7.9595   8.0341   8.0620   8.0760   8.1485

          k =-0.2500 0.2500 0.0000 ( 42090 PWs)   bands (ev):

    -7.5436  -7.4534  -7.3327  -7.1555  -6.9243  -6.6414  -6.3113  -5.9416
    -5.5493  -5.5270  -5.5228  -5.4960  -5.4523  -5.4350  -5.3795  -5.3603
    -5.3058  -5.2953  -5.2798  -5.1601  -5.1209  -4.7383  -4.4906  -4.0092
    -3.2802  -3.1417  -2.9237  -2.9200  -2.8992  -2.7654  -2.7090  -2.5802
    -2.5563  -2.4956  -2.3890  -2.3018  -2.2178  -2.2069  -2.1915  -2.1484
    -1.8279  -1.4614  -1.0999  -0.7574  -0.4166  -0.3794  -0.0857  -0.0101
     0.0816   0.3016   0.3043   0.3082   0.3117   0.3202   0.3651   0.3708
     0.3913   0.4481   0.4492   0.7132   0.7821   0.8018   0.8777   0.9164
     1.0768   1.2178   1.2842   1.3741   1.4380   1.4636   1.5159   1.5386
     1.6034   1.6128   1.6201   1.6575   1.6832   1.7097   1.7396   1.8360
     1.9556   2.0082   2.2165   2.3447   2.4212   2.4579   2.7197   2.7586
     2.8086   2.9809   3.1128   3.2119   3.2180   3.4122   3.4926   3.6750
     4.3080   4.4539   4.6177   5.0762   5.2117   5.3489   5.3574   5.3625
     5.3915   5.4014   5.5838   5.6142   5.6406   5.6824   5.7750   5.8031
     5.9174   5.9514   6.0085   6.0142   6.1017   6.2022   6.2790   6.4665
     6.6075   6.6554   6.6946   6.7212   6.9217   6.9529   7.0233   7.0996
     7.1232   7.1563   7.2545   7.2754   7.2895   7.3120   7.3485   7.3549
     7.5043   7.6177   7.7901   7.8020   7.9292   7.9932   7.9957   8.1227

          k =-0.2500 0.3750 0.0000 ( 42131 PWs)   bands (ev):

    -7.2165  -7.1305  -7.0162  -6.8480  -6.6305  -6.3701  -6.1955  -6.1243
    -6.0727  -6.0030  -5.8966  -5.7612  -5.7051  -5.5940  -5.4558  -5.3829
    -5.3575  -5.3252  -5.2814  -5.2393  -5.0688  -4.8092  -4.7080  -4.3254
    -3.2657  -3.0984  -2.9543  -2.9316  -2.9294  -2.7692  -2.7574  -2.7389
    -2.5698  -2.5351  -2.5156  -2.4321  -2.2490  -2.1755  -1.9310  -1.8661
    -1.5934  -1.5612  -1.3906  -1.2197  -0.8777  -0.5859  -0.4193  -0.2622
    -0.0433  -0.0013   0.0945   0.1729   0.3610   0.3712   0.5573   0.6649
     0.7519   0.7698   0.9277   0.9516   0.9784   1.0558   1.1164   1.1525
     1.2126   1.3737   1.4473   1.4618   1.4979   1.5556   1.5833   1.6666
     1.6834   1.7345   1.7890   1.8080   1.8862   1.9011   1.9388   2.0046
     2.0438   2.0497   2.0900   2.1740   2.2930   2.3759   2.4438   2.6816
     2.7212   2.7523   2.9007   3.0508   3.0979   3.1890   3.4781   3.6306
     4.3574   4.4897   4.9881   5.5599   5.6510   5.6785   5.7193   5.7787
     5.8137   5.8418   5.8612   5.9219   5.9412   5.9794   5.9950   6.1033
     6.1692   6.2325   6.2389   6.3182   6.3591   6.4447   6.5168   6.6115
     6.7087   6.7728   6.8935   7.0595   7.0810   7.0978   7.1174   7.1587
     7.1898   7.2342   7.3241   7.3966   7.4697   7.5450   7.5534   7.6206
     7.6467   7.7494   7.7969   7.8318   7.9050   7.9612   8.0575   8.1125

          k =-0.3750 0.3750 0.0000 ( 42180 PWs)   bands (ev):

    -6.9009  -6.8192  -6.7132  -6.5583  -6.3615  -6.1316  -5.9357  -5.9317
    -5.9062  -5.8875  -5.8573  -5.8414  -5.7866  -5.7642  -5.7147  -5.6972
    -5.6864  -5.6139  -5.5622  -5.4008  -5.2488  -5.1032  -5.0358  -4.7524
    -3.3598  -3.0161  -2.9937  -2.9512  -2.9481  -2.8239  -2.7967  -2.7933
    -2.7380  -2.6082  -2.5695  -2.4413  -2.3579  -2.2718  -2.1168  -2.0462
    -1.9770  -1.8823  -1.8192  -1.6928  -1.3162  -0.9696  -0.6955  -0.5466
    -0.3119   0.1216   0.2516   0.2787   0.4828   0.6346   0.6565   0.7890
     1.0255   1.0289   1.1691   1.2217   1.3314   1.3781   1.4236   1.5458
     1.5994   1.6862   1.8393   1.8599   1.8600   1.9166   1.9207   1.9398
     1.9577   1.9604   2.0088   2.0625   2.0808   2.1074   2.1160   2.2032
     2.2254   2.2458   2.2784   2.3882   2.4111   2.4522   2.5381   2.6887
     2.8309   2.9505   3.0284   3.1476   3.1866   3.1919   3.5438   3.5735
     4.0630   4.5230   5.4261   5.5467   5.5584   5.6300   5.6735   5.7529
     5.8765   5.9049   5.9439   5.9649   6.0033   6.0269   6.0766   6.1446
     6.2157   6.2159   6.3536   6.4222   6.5158   6.5722   6.7092   6.7655
     6.8693   6.9933   7.0512   7.0743   7.0919   7.1123   7.1750   7.2133
     7.2679   7.2779   7.3145   7.3208   7.3454   7.3460   7.3524   7.3819
     7.3911   7.4011   7.4059   7.4231   7.4524   7.5057   7.5144   7.6127

     the Fermi energy is     3.7744 ev

!    total energy              =   -2242.40916732 Ry
     Harris-Foulkes estimate   =   -2242.40916733 Ry
     estimated scf accuracy    <          5.2E-09 Ry

     total all-electron energy =    -27843.010686 Ry

     The total energy is the sum of the following terms:

     one-electron contribution =   -2248.51869007 Ry
     hartree contribution      =    1202.65993684 Ry
     xc contribution           =    -235.43254840 Ry
     ewald contribution        =     806.13861161 Ry
     one-center paw contrib.   =   -1767.25107312 Ry
     smearing contrib. (-TS)   =      -0.00540418 Ry

     convergence has been achieved in  19 iterations

     negative rho (up, down):  7.813E-08 0.000E+00

     Forces acting on atoms (cartesian axes, Ry/au):

     atom    1 type  1   force =     0.00000074    0.00000074   -0.00005439
     atom    2 type  1   force =     0.00000039    0.00000039    0.00000003
     atom    3 type  1   force =     0.00000039    0.00000039    0.00000003
     atom    4 type  1   force =     0.00000068    0.00000068    0.00005262
     atom    5 type  1   force =    -0.00002249   -0.00002249   -0.00000073
     atom    6 type  1   force =     0.00000153   -0.00000085    0.00000054
     atom    7 type  1   force =    -0.00000085    0.00000153    0.00000054
     atom    8 type  1   force =     0.00002384    0.00002384   -0.00000078
     atom    9 type  1   force =     0.00000029    0.00000029   -0.00000103
     atom   10 type  1   force =     0.00000021    0.00000018   -0.00000022
     atom   11 type  1   force =     0.00000018    0.00000021   -0.00000022
     atom   12 type  1   force =     0.00000026    0.00000026    0.00000229
     atom   13 type  1   force =    -0.00000031   -0.00000031    0.00000040
     atom   14 type  1   force =     0.00000033    0.00000012   -0.00000079
     atom   15 type  1   force =     0.00000012    0.00000033   -0.00000079
     atom   16 type  1   force =     0.00000085    0.00000085    0.00000044
     atom   17 type  1   force =     0.00000011    0.00000011   -0.00000108
     atom   18 type  1   force =     0.00000001   -0.00000000   -0.00000064
     atom   19 type  1   force =    -0.00000000    0.00000001   -0.00000064
     atom   20 type  1   force =     0.00000012    0.00000012   -0.00000085
     atom   21 type  1   force =     0.00000004    0.00000004   -0.00000083
     atom   22 type  1   force =     0.00000002   -0.00000005   -0.00000043
     atom   23 type  1   force =    -0.00000005    0.00000002   -0.00000043
     atom   24 type  1   force =     0.00000008    0.00000008   -0.00000081
     atom   25 type  1   force =    -0.00000005   -0.00000005   -0.00000085
     atom   26 type  1   force =    -0.00000015   -0.00000017   -0.00000130
     atom   27 type  1   force =    -0.00000017   -0.00000015   -0.00000130
     atom   28 type  1   force =    -0.00000013   -0.00000013   -0.00000088
     atom   29 type  1   force =    -0.00000009   -0.00000009   -0.00000085
     atom   30 type  1   force =    -0.00000027   -0.00000020   -0.00000094
     atom   31 type  1   force =    -0.00000020   -0.00000027   -0.00000094
     atom   32 type  1   force =    -0.00000018   -0.00000018   -0.00000079
     atom   33 type  1   force =    -0.00000018   -0.00000018   -0.00000092
     atom   34 type  1   force =    -0.00000033   -0.00000014    0.00000006
     atom   35 type  1   force =    -0.00000014   -0.00000033    0.00000006
     atom   36 type  1   force =    -0.00000020   -0.00000020   -0.00000116
     atom   37 type  1   force =    -0.00000046   -0.00000046   -0.00000022
     atom   38 type  1   force =    -0.00000120    0.00000035    0.00000099
     atom   39 type  1   force =     0.00000035   -0.00000120    0.00000099
     atom   40 type  1   force =    -0.00000024   -0.00000024   -0.00000019
     atom   41 type  1   force =    -0.00000042   -0.00000042    0.00000067
     atom   42 type  1   force =    -0.00000118   -0.00000665    0.00000160
     atom   43 type  1   force =    -0.00000665   -0.00000118    0.00000160
     atom   44 type  1   force =     0.00000076    0.00000076    0.00000225
     atom   45 type  1   force =    -0.00000076   -0.00000076    0.00000445
     atom   46 type  1   force =     0.00000391    0.00000266    0.00000256
     atom   47 type  1   force =     0.00000266    0.00000391    0.00000256
     atom   48 type  1   force =    -0.00000115   -0.00000115    0.00000036

     Total force =     0.000090     Total SCF correction =     0.000135
     SCF correction compared to forces is large: reduce conv_thr to get better values


     Computing stress (Cartesian axis) and pressure


     negative rho (up, down):  7.813E-08 0.000E+00
          total   stress  (Ry/bohr**3)                   (kbar)     P=    2.15
   0.00002344   0.00003245   0.00000016          3.45      4.77      0.02
   0.00003245   0.00002344   0.00000016          4.77      3.45      0.02
   0.00000016   0.00000016  -0.00000301          0.02      0.02     -0.44


     Writing output data file Si.Fd-3m_6ML.save/
 
     init_run     :      7.77s CPU      8.85s WALL (       1 calls)
     electrons    :   1341.59s CPU   1481.47s WALL (       1 calls)
     forces       :      2.36s CPU      2.61s WALL (       1 calls)
     stress       :     16.70s CPU     18.43s WALL (       1 calls)

     Called by init_run:
     wfcinit      :      6.08s CPU      6.17s WALL (       1 calls)
     potinit      :      1.01s CPU      1.77s WALL (       1 calls)
     hinit0       :      0.40s CPU      0.41s WALL (       1 calls)

     Called by electrons:
     c_bands      :   1227.22s CPU   1348.10s WALL (      20 calls)
     sum_band     :     57.06s CPU     64.90s WALL (      20 calls)
     v_of_rho     :      3.60s CPU      3.61s WALL (      20 calls)
     newd         :      0.50s CPU      0.58s WALL (      20 calls)
     PAW_pot      :      5.53s CPU     10.25s WALL (      20 calls)
     mix_rho      :     42.25s CPU     42.43s WALL (      20 calls)

     Called by c_bands:
     init_us_2    :      2.61s CPU      2.62s WALL (      86 calls)
     ccgdiagg     :   1028.46s CPU   1034.04s WALL (      40 calls)
     wfcrot       :     84.59s CPU     85.12s WALL (      38 calls)

     Called by sum_band:
     sum_band:bec :      0.02s CPU      0.02s WALL (      40 calls)
     addusdens    :      2.02s CPU      3.94s WALL (      20 calls)

     Called by *cgdiagg:
     h_psi        :    558.33s CPU    561.46s WALL (   13958 calls)
     s_psi        :    311.14s CPU    311.49s WALL (   27878 calls)
     cdiaghg      :      0.24s CPU      0.24s WALL (      38 calls)

     Called by h_psi:
     h_psi:pot    :    557.18s CPU    560.28s WALL (   13958 calls)
     h_psi:calbec :    167.76s CPU    168.98s WALL (   13958 calls)
     vloc_psi     :    231.35s CPU    233.02s WALL (   13958 calls)
     add_vuspsi   :    157.91s CPU    158.20s WALL (   13958 calls)
     hs_1psi      :    638.53s CPU    641.26s WALL (   13920 calls)
     s_1psi       :    310.47s CPU    312.39s WALL (   13920 calls)

     General routines
     calbec       :    330.70s CPU    333.73s WALL (   27928 calls)
     fft          :      3.07s CPU      3.07s WALL (     246 calls)
     ffts         :     23.32s CPU     23.69s WALL (    1900 calls)
     fftw         :    215.19s CPU    216.65s WALL (   44736 calls)
 
     Parallel routines
     fft_scatt_xy :     51.93s CPU     52.07s WALL (   46882 calls)
     fft_scatt_yz :     62.06s CPU     63.11s WALL (   46882 calls)
 
     PWSCF        :  22m49.10s CPU  28m12.89s WALL

 
   This run was terminated on:  17:52:15   4Sep2021            

=------------------------------------------------------------------------------=
   JOB DONE.
=------------------------------------------------------------------------------=
Note: The following floating-point exceptions are signalling: IEEE_UNDERFLOW_FLAG IEEE_DENORMAL
Note: The following floating-point exceptions are signalling: IEEE_UNDERFLOW_FLAG IEEE_DENORMAL
Note: The following floating-point exceptions are signalling: IEEE_UNDERFLOW_FLAG IEEE_DENORMAL
Note: The following floating-point exceptions are signalling: IEEE_UNDERFLOW_FLAG IEEE_DENORMAL
