
     Program PWSCF v.6.4.1 starts on  3Sep2021 at 13:47:29 

     This program is part of the open-source Quantum ESPRESSO suite
     for quantum simulation of materials; please cite
         "P. Giannozzi et al., J. Phys.:Condens. Matter 21 395502 (2009);
         "P. Giannozzi et al., J. Phys.:Condens. Matter 29 465901 (2017);
          URL http://www.quantum-espresso.org", 
     in publications or presentations arising from this work. More details at
     http://www.quantum-espresso.org/quote

     Parallel version (MPI), running on    60 processors

     MPI processes distributed on    15 nodes
     K-points division:     npool     =      15
     R & G space division:  proc/nbgrp/npool/nimage =       4
     Reading input from Si.Fd-3m_2ML.scf.in

     Current dimensions of program PWSCF are:
     Max number of different atomic species (ntypx) = 10
     Max number of k-points (npk) =  40000
     Max angular momentum in pseudopotentials (lmaxx) =  3
               file Si.pbe-nl-kjpaw_psl.1.0.0.UPF: wavefunction(s)  3S 3P renormalized

     Subspace diagonalization in iterative solution of the eigenvalue problem:
     a serial algorithm will be used

 
     Parallelization info
     --------------------
     sticks:   dense  smooth     PW     G-vecs:    dense   smooth      PW
     Min         364     364    105                35348    35348    5549
     Max         365     365    106                35357    35357    5562
     Sum        1457    1457    421               141409   141409   22211
 

     Title: 
     Relaxation of atomic positions for single monolayer slab of Si using PBE   


     bravais-lattice index     =            0
     lattice parameter (alat)  =      10.2270  a.u.
     unit-cell volume          =    3615.4593 (a.u.)^3
     number of atoms/cell      =           16
     number of atomic types    =            1
     number of electrons       =        64.00
     number of Kohn-Sham states=           48
     kinetic-energy cutoff     =      45.0000  Ry
     charge density cutoff     =     175.0000  Ry
     convergence threshold     =      1.0E-10
     mixing beta               =       0.5000
     number of iterations used =            8  local-TF  mixing
     Exchange-correlation      = SLA PW PBX PBC ( 1  4  3  4 0 0)

     celldm(1)=  10.227016  celldm(2)=   0.000000  celldm(3)=   0.000000
     celldm(4)=   0.000000  celldm(5)=   0.000000  celldm(6)=   0.000000

     crystal axes: (cart. coord. in units of alat)
               a(1) = (   1.000000   0.000000   0.000000 )  
               a(2) = (   0.000000   1.000000   0.000000 )  
               a(3) = (   0.000000   0.000000   3.380000 )  

     reciprocal axes: (cart. coord. in units 2 pi/alat)
               b(1) = (  1.000000  0.000000  0.000000 )  
               b(2) = (  0.000000  1.000000  0.000000 )  
               b(3) = (  0.000000  0.000000  0.295858 )  


     PseudoPot. # 1 for Si read from file:
     /share/pseudo/Si.pbe-nl-kjpaw_psl.1.0.0.UPF
     MD5 check sum: 3686bff6734aab787fb18a3c8374d51f
     Pseudo is Projector augmented-wave + core cor, Zval =  4.0
     Generated using "atomic" code by A. Dal Corso v.6.3
     Shape of augmentation charge: PSQ
     Using radial grid of 1141 points,  4 beta functions with: 
                l(1) =   0
                l(2) =   0
                l(3) =   1
                l(4) =   1
     Q(r) pseudized with 0 coefficients 


     atomic species   valence    mass     pseudopotential
        Si             4.00    28.08600     Si( 1.00)

     No symmetry found



   Cartesian axes

     site n.     atom                  positions (alat units)
         1           Si  tau(   1) = (  -0.0613912   0.0693939   1.0246604  )
         2           Si  tau(   2) = (   0.0289283   0.5072203   1.5488498  )
         3           Si  tau(   3) = (   0.5005196  -0.0211903   1.5488662  )
         4           Si  tau(   4) = (   0.6467872   0.3612573   1.1569006  )
         5           Si  tau(   5) = (   0.2524873   0.2351554   1.2887145  )
         6           Si  tau(   6) = (   0.2565979   0.7511301   1.8244862  )
         7           Si  tau(   7) = (   0.7697650   0.2379571   1.7853643  )
         8           Si  tau(   8) = (   0.7727809   0.7555421   1.2886796  )
         9           Si  tau(   9) = (   0.0064369   0.0012638   2.0777639  )
        10           Si  tau(  10) = (   0.0034715   0.4837110   2.5744159  )
        11           Si  tau(  11) = (   0.5237418   0.0040763   2.5744039  )
        12           Si  tau(  12) = (   0.5196019   0.4881020   2.0386038  )
        13           Si  tau(  13) = (   0.2757046   0.2604113   2.3142147  )
        14           Si  tau(  14) = (   0.1294171   0.8780267   2.7061626  )
        15           Si  tau(  15) = (   0.8376142   0.1698786   2.8384148  )
        16           Si  tau(  16) = (   0.7472742   0.7319921   2.3142418  )

     number of k points=    34  gaussian smearing, width (Ry)=  0.0100
                       cart. coord. in units 2pi/alat
        k(    1) = (   0.0000000   0.0000000   0.0000000), wk =   0.0312500
        k(    2) = (   0.0000000   0.1250000   0.0000000), wk =   0.0625000
        k(    3) = (   0.0000000   0.2500000   0.0000000), wk =   0.0625000
        k(    4) = (   0.0000000   0.3750000   0.0000000), wk =   0.0625000
        k(    5) = (   0.0000000  -0.5000000   0.0000000), wk =   0.0312500
        k(    6) = (   0.1250000   0.1250000   0.0000000), wk =   0.0625000
        k(    7) = (   0.1250000   0.2500000   0.0000000), wk =   0.0625000
        k(    8) = (   0.1250000   0.3750000   0.0000000), wk =   0.0625000
        k(    9) = (   0.1250000  -0.5000000   0.0000000), wk =   0.0625000
        k(   10) = (   0.2500000   0.2500000   0.0000000), wk =   0.0625000
        k(   11) = (   0.2500000   0.3750000   0.0000000), wk =   0.0625000
        k(   12) = (   0.2500000  -0.5000000   0.0000000), wk =   0.0625000
        k(   13) = (   0.3750000   0.3750000   0.0000000), wk =   0.0625000
        k(   14) = (   0.3750000  -0.5000000   0.0000000), wk =   0.0625000
        k(   15) = (  -0.5000000  -0.5000000   0.0000000), wk =   0.0312500
        k(   16) = (   0.1250000   0.0000000   0.0000000), wk =   0.0625000
        k(   17) = (   0.2500000   0.0000000   0.0000000), wk =   0.0625000
        k(   18) = (   0.3750000   0.0000000   0.0000000), wk =   0.0625000
        k(   19) = (  -0.5000000   0.0000000   0.0000000), wk =   0.0312500
        k(   20) = (  -0.1250000   0.1250000   0.0000000), wk =   0.0625000
        k(   21) = (  -0.1250000   0.2500000   0.0000000), wk =   0.0625000
        k(   22) = (   0.2500000   0.1250000   0.0000000), wk =   0.0625000
        k(   23) = (   0.2500000  -0.1250000   0.0000000), wk =   0.0625000
        k(   24) = (  -0.1250000   0.3750000   0.0000000), wk =   0.0625000
        k(   25) = (   0.3750000   0.1250000   0.0000000), wk =   0.0625000
        k(   26) = (   0.3750000  -0.1250000   0.0000000), wk =   0.0625000
        k(   27) = (  -0.5000000   0.1250000   0.0000000), wk =   0.0625000
        k(   28) = (  -0.2500000   0.2500000   0.0000000), wk =   0.0625000
        k(   29) = (  -0.2500000   0.3750000   0.0000000), wk =   0.0625000
        k(   30) = (   0.3750000   0.2500000   0.0000000), wk =   0.0625000
        k(   31) = (   0.3750000  -0.2500000   0.0000000), wk =   0.0625000
        k(   32) = (  -0.5000000   0.2500000   0.0000000), wk =   0.0625000
        k(   33) = (  -0.3750000   0.3750000   0.0000000), wk =   0.0625000
        k(   34) = (  -0.5000000   0.3750000   0.0000000), wk =   0.0625000

     Dense  grid:   141409 G-vectors     FFT dimensions: (  45,  45, 150)

     Estimated max dynamical RAM per process >      58.12 MB

     Estimated total dynamical RAM >       3.41 GB

     Initial potential from superposition of free atoms

     starting charge   63.99105, renormalised to   64.00000

     negative rho (up, down):  2.547E-08 0.000E+00
     Starting wfcs are   64 randomized atomic wfcs
     Checking if some PAW data can be deallocated... 

     total cpu time spent up to now is        3.3 secs

     Self-consistent Calculation

     iteration #  1     ecut=    45.00 Ry     beta= 0.50
     CG style diagonalization
     ethr =  1.00E-02,  avg # of iterations =  3.4

     Threshold (ethr) on eigenvalues was too large:
     Diagonalizing with lowered threshold

     CG style diagonalization
     ethr =  8.78E-04,  avg # of iterations =  2.2

     total cpu time spent up to now is       22.0 secs

     total energy              =    -747.31829264 Ry
     Harris-Foulkes estimate   =    -747.39332146 Ry
     estimated scf accuracy    <       0.57038790 Ry

     iteration #  2     ecut=    45.00 Ry     beta= 0.50
     CG style diagonalization
     ethr =  8.91E-04,  avg # of iterations =  3.0

     total cpu time spent up to now is       29.9 secs

     total energy              =    -747.25504509 Ry
     Harris-Foulkes estimate   =    -747.33427592 Ry
     estimated scf accuracy    <       0.31797287 Ry

     iteration #  3     ecut=    45.00 Ry     beta= 0.50
     CG style diagonalization
     ethr =  4.97E-04,  avg # of iterations =  3.0

     total cpu time spent up to now is       37.8 secs

     total energy              =    -747.26746566 Ry
     Harris-Foulkes estimate   =    -747.27394647 Ry
     estimated scf accuracy    <       0.04554617 Ry

     iteration #  4     ecut=    45.00 Ry     beta= 0.50
     CG style diagonalization
     c_bands:  1 eigenvalues not converged
     c_bands:  1 eigenvalues not converged
     ethr =  7.12E-05,  avg # of iterations =  4.6

     total cpu time spent up to now is       50.0 secs

     total energy              =    -747.27439552 Ry
     Harris-Foulkes estimate   =    -747.27578949 Ry
     estimated scf accuracy    <       0.01408716 Ry

     iteration #  5     ecut=    45.00 Ry     beta= 0.50
     CG style diagonalization
     c_bands:  1 eigenvalues not converged
     ethr =  2.20E-05,  avg # of iterations =  3.7

     total cpu time spent up to now is       60.2 secs

     total energy              =    -747.27297751 Ry
     Harris-Foulkes estimate   =    -747.27521660 Ry
     estimated scf accuracy    <       0.00937936 Ry

     iteration #  6     ecut=    45.00 Ry     beta= 0.50
     CG style diagonalization
     ethr =  1.47E-05,  avg # of iterations =  3.2

     total cpu time spent up to now is       68.4 secs

     total energy              =    -747.27370323 Ry
     Harris-Foulkes estimate   =    -747.27359111 Ry
     estimated scf accuracy    <       0.00250485 Ry

     iteration #  7     ecut=    45.00 Ry     beta= 0.50
     CG style diagonalization
     c_bands:  1 eigenvalues not converged
     ethr =  3.91E-06,  avg # of iterations =  4.4

     total cpu time spent up to now is       82.1 secs

     total energy              =    -747.27409659 Ry
     Harris-Foulkes estimate   =    -747.27409735 Ry
     estimated scf accuracy    <       0.00033990 Ry

     iteration #  8     ecut=    45.00 Ry     beta= 0.50
     CG style diagonalization
     c_bands:  1 eigenvalues not converged
     ethr =  5.31E-07,  avg # of iterations =  4.2

     total cpu time spent up to now is       93.8 secs

     total energy              =    -747.27420255 Ry
     Harris-Foulkes estimate   =    -747.27423767 Ry
     estimated scf accuracy    <       0.00019792 Ry

     iteration #  9     ecut=    45.00 Ry     beta= 0.50
     CG style diagonalization
     c_bands:  1 eigenvalues not converged
     ethr =  3.09E-07,  avg # of iterations =  3.1

     negative rho (up, down):  6.977E-08 0.000E+00

     total cpu time spent up to now is      103.5 secs

     total energy              =    -747.27422173 Ry
     Harris-Foulkes estimate   =    -747.27422277 Ry
     estimated scf accuracy    <       0.00002390 Ry

     iteration # 10     ecut=    45.00 Ry     beta= 0.50
     CG style diagonalization
     ethr =  3.73E-08,  avg # of iterations =  3.9

     negative rho (up, down):  4.682E-08 0.000E+00

     total cpu time spent up to now is      116.3 secs

     total energy              =    -747.27423107 Ry
     Harris-Foulkes estimate   =    -747.27423214 Ry
     estimated scf accuracy    <       0.00000684 Ry

     iteration # 11     ecut=    45.00 Ry     beta= 0.50
     CG style diagonalization
     ethr =  1.07E-08,  avg # of iterations =  3.0

     negative rho (up, down):  2.390E-08 0.000E+00

     total cpu time spent up to now is      125.9 secs

     total energy              =    -747.27422933 Ry
     Harris-Foulkes estimate   =    -747.27423141 Ry
     estimated scf accuracy    <       0.00000444 Ry

     iteration # 12     ecut=    45.00 Ry     beta= 0.50
     CG style diagonalization
     ethr =  6.95E-09,  avg # of iterations =  3.3

     total cpu time spent up to now is      135.3 secs

     total energy              =    -747.27422999 Ry
     Harris-Foulkes estimate   =    -747.27423006 Ry
     estimated scf accuracy    <       0.00000024 Ry

     iteration # 13     ecut=    45.00 Ry     beta= 0.50
     CG style diagonalization
     ethr =  3.75E-10,  avg # of iterations =  4.0

     total cpu time spent up to now is      146.5 secs

     total energy              =    -747.27423011 Ry
     Harris-Foulkes estimate   =    -747.27423011 Ry
     estimated scf accuracy    <       0.00000002 Ry

     iteration # 14     ecut=    45.00 Ry     beta= 0.50
     CG style diagonalization
     ethr =  3.90E-11,  avg # of iterations =  3.5

     total cpu time spent up to now is      156.2 secs

     total energy              =    -747.27423011 Ry
     Harris-Foulkes estimate   =    -747.27423012 Ry
     estimated scf accuracy    <          8.8E-09 Ry

     iteration # 15     ecut=    45.00 Ry     beta= 0.50
     CG style diagonalization
     ethr =  1.37E-11,  avg # of iterations =  3.5

     total cpu time spent up to now is      165.9 secs

     total energy              =    -747.27423011 Ry
     Harris-Foulkes estimate   =    -747.27423011 Ry
     estimated scf accuracy    <          4.3E-10 Ry

     iteration # 16     ecut=    45.00 Ry     beta= 0.50
     CG style diagonalization
     ethr =  6.79E-13,  avg # of iterations =  4.1

     total cpu time spent up to now is      177.2 secs

     total energy              =    -747.27423011 Ry
     Harris-Foulkes estimate   =    -747.27423011 Ry
     estimated scf accuracy    <          1.6E-10 Ry

     iteration # 17     ecut=    45.00 Ry     beta= 0.50
     CG style diagonalization
     ethr =  2.43E-13,  avg # of iterations =  3.2

     total cpu time spent up to now is      185.3 secs

     End of self-consistent calculation

          k = 0.0000 0.0000 0.0000 ( 18429 PWs)   bands (ev):

   -10.0278  -9.5675  -8.4392  -6.8748  -6.0400  -5.9986  -5.9022  -5.8826
    -5.7382  -5.6795  -5.2725  -4.5945  -4.4971  -3.4910  -2.2161  -2.1925
    -2.1691  -1.8752  -1.5284  -0.9090  -0.8492  -0.6584  -0.6502  -0.6245
    -0.1232  -0.0043   0.0445   0.4170   0.9220   0.9502   1.3991   1.4431
     1.5356   1.9001   2.6472   2.9417   3.3176   3.3187   3.3816   3.5670
     3.7793   4.1290   4.3181   4.7127   4.8215   4.9782   5.0753   5.5046

          k = 0.0000 0.1250 0.0000 ( 18420 PWs)   bands (ev):

    -9.9603  -9.5035  -8.3861  -6.9120  -6.7248  -6.4439  -6.0708  -5.7516
    -5.4546  -5.2498  -5.1058  -4.5369  -4.2922  -3.5022  -2.4470  -2.2114
    -1.8885  -1.8197  -1.5754  -0.9455  -0.8790  -0.8192  -0.7313  -0.6864
    -0.2931  -0.0738   0.0346   0.4409   0.7624   0.9386   1.2004   1.4559
     1.6873   2.0676   3.0082   3.1483   3.2660   3.5104   3.6784   3.8423
     3.8726   4.2300   4.4043   4.5824   4.8436   5.0587   5.3531   5.5147

          k = 0.0000 0.2500 0.0000 ( 18404 PWs)   bands (ev):

    -9.7595  -9.3162  -8.2503  -7.5655  -7.1850  -6.6218  -6.4176  -5.7435
    -5.3890  -5.0557  -4.7301  -4.1656  -3.9758  -3.3824  -2.5307  -2.2666
    -2.0636  -1.7335  -1.4119  -1.2175  -1.1619  -1.0334  -0.7826  -0.5428
    -0.4737  -0.3017  -0.0306   0.5172   0.5819   0.6372   1.2049   1.3692
     1.9809   2.3568   3.0679   3.6936   3.8835   3.9532   4.0224   4.2418
     4.3822   4.4635   4.6907   4.7823   5.1006   5.2779   5.4083   5.6164

          k = 0.0000 0.3750 0.0000 ( 18404 PWs)   bands (ev):

    -9.4335  -9.0350  -8.3568  -8.0112  -7.6268  -6.8891  -6.4358  -5.8088
    -5.3439  -4.8915  -4.6069  -4.0557  -3.6201  -3.0526  -2.4808  -2.2954
    -2.1640  -1.8877  -1.6932  -1.4143  -1.3538  -1.1137  -0.8234  -0.7035
    -0.2937  -0.1700  -0.0779   0.2367   0.3702   0.6871   1.2874   1.3539
     2.3190   2.5910   3.2285   3.7061   3.9011   4.2845   4.3728   4.6567
     4.9464   5.2017   5.2463   5.2646   5.4535   5.6826   5.7435   5.8532

          k = 0.0000-0.5000 0.0000 ( 18346 PWs)   bands (ev):

    -9.0766  -8.9589  -8.6268  -8.2498  -7.5584  -7.1732  -6.3348  -5.8783
    -5.3199  -4.8265  -4.5638  -4.0328  -3.5342  -2.9270  -2.3021  -2.2731
    -2.1131  -2.1097  -1.8596  -1.5183  -1.3994  -1.1087  -0.9375  -0.8093
    -0.1820  -0.1204  -0.0147   0.0869   0.3702   0.6575   1.2176   1.5365
     2.4494   2.7164   3.3772   3.6772   3.9461   4.0322   4.5858   4.7301
     4.9792   5.1808   5.3337   5.5901   5.7096   5.9355   6.1277   6.2057

          k = 0.1250 0.1250 0.0000 ( 18391 PWs)   bands (ev):

    -9.8927  -9.4405  -8.3390  -6.9694  -6.7697  -6.6364  -6.2689  -6.1576
    -5.4358  -5.1478  -4.9880  -4.0592  -3.9190  -3.7466  -2.6151  -2.0558
    -1.8263  -1.8110  -1.6798  -1.1151  -1.0474  -0.8717  -0.8638  -0.4913
    -0.3826  -0.0809   0.1679   0.4741   0.5280   0.9705   1.3099   1.4313
     1.8002   2.1069   2.9153   3.3264   3.4236   3.4427   3.8269   3.9391
     4.1067   4.2527   4.5004   4.7915   4.8916   5.3024   5.4489   5.6831

          k = 0.1250 0.2500 0.0000 ( 18428 PWs)   bands (ev):

    -9.6924  -9.2547  -8.2118  -7.5310  -7.1796  -6.5668  -6.4699  -6.4383
    -5.5592  -5.0187  -4.4779  -4.1770  -3.5952  -3.3853  -2.7224  -2.0949
    -2.0331  -1.8308  -1.4998  -1.4560  -1.1048  -0.9681  -0.6686  -0.4448
    -0.4251  -0.2811   0.1057   0.2291   0.6619   0.8755   1.2374   1.3824
     2.1553   2.2409   3.3415   3.4875   3.5985   3.9258   4.0109   4.0993
     4.4365   4.6196   4.8314   5.1483   5.2909   5.3649   5.4674   5.6869

          k = 0.1250 0.3750 0.0000 ( 18416 PWs)   bands (ev):

    -9.3671  -8.9752  -8.3111  -7.9725  -7.5878  -6.8698  -6.4774  -6.2836
    -5.6595  -4.8906  -4.4758  -4.0427  -3.5846  -3.1036  -2.6279  -2.1747
    -2.1681  -1.7565  -1.6449  -1.4372  -1.1814  -0.8973  -0.7486  -0.6382
    -0.3408  -0.2213   0.0581   0.1598   0.5443   0.8222   1.1864   1.3855
     2.4993   2.5364   3.4615   3.7371   4.0225   4.1722   4.4142   4.5372
     4.8751   4.9156   4.9943   5.1803   5.2630   5.6042   5.8858   6.0224

          k = 0.1250-0.5000 0.0000 ( 18430 PWs)   bands (ev):

    -9.0117  -8.8958  -8.5706  -8.2069  -7.5270  -7.1931  -6.4829  -5.9868
    -5.7653  -4.8118  -4.6201  -3.9004  -3.7144  -3.0645  -2.5054  -2.2565
    -2.1149  -1.8463  -1.6930  -1.4359  -1.2547  -0.9370  -0.6244  -0.5977
    -0.3264  -0.0455   0.0044   0.1824   0.4105   0.6594   1.2213   1.4762
     2.6189   2.7734   3.5058   3.7907   3.9930   4.0977   4.4157   4.6903
     4.9032   5.2314   5.3423   5.5665   5.6736   5.7371   5.8137   6.0204

          k = 0.2500 0.2500 0.0000 ( 18415 PWs)   bands (ev):

    -9.4942  -9.0718  -8.0953  -7.5389  -7.3740  -6.8764  -6.8342  -6.4654
    -5.9660  -4.9442  -4.4943  -4.2338  -3.1934  -3.1562  -3.1083  -2.1541
    -2.0488  -1.6840  -1.5149  -1.2869  -1.2772  -0.6691  -0.6108  -0.5269
    -0.3425  -0.0843   0.0798   0.4886   0.6947   1.0972   1.2152   1.2656
     2.2938   2.4615   3.3648   3.5394   3.7027   3.9132   4.2092   4.2559
     4.5019   4.7181   4.8505   5.2964   5.3018   5.4954   5.6699   6.0571

          k = 0.2500 0.3750 0.0000 ( 18449 PWs)   bands (ev):

    -9.1724  -8.7956  -8.1718  -7.8780  -7.5275  -7.0111  -6.9456  -6.4820
    -6.2412  -4.9624  -4.5270  -4.2390  -3.6669  -3.0660  -2.8512  -2.3240
    -2.1276  -1.6133  -1.1328  -1.0544  -0.9412  -0.8993  -0.6619  -0.3543
    -0.2205   0.0596   0.2297   0.4345   0.6616   1.0019   1.1979   1.3097
     2.5775   2.7877   3.5815   3.8005   3.9396   4.2641   4.2943   4.4270
     4.8006   4.8409   5.0030   5.1355   5.2090   5.5210   5.7807   5.8245

          k = 0.2500-0.5000 0.0000 ( 18476 PWs)   bands (ev):

    -8.8203  -8.7108  -8.4088  -8.0918  -7.4722  -7.2650  -6.8446  -6.3979
    -6.3604  -4.8509  -4.6203  -4.1939  -3.9038  -3.2817  -2.8414  -2.3540
    -1.9600  -1.6047  -1.1963  -0.9532  -0.7479  -0.7313  -0.5169  -0.3722
     0.0043   0.0280   0.1431   0.3237   0.6721   0.8675   1.2877   1.3648
     2.8019   2.9031   3.7684   3.9585   4.0482   4.2341   4.3365   4.5925
     4.7470   4.9142   5.0033   5.2395   5.4406   5.5354   5.6407   5.7726

          k = 0.3750 0.3750 0.0000 ( 18460 PWs)   bands (ev):

    -8.8580  -8.5260  -8.0387  -7.9243  -7.5319  -7.2735  -7.1992  -6.7238
    -6.6683  -4.8799  -4.5541  -4.5228  -3.9980  -3.2068  -2.9514  -2.4264
    -2.1530  -1.2436  -1.0770  -1.0263  -0.6526  -0.2254  -0.2169  -0.1967
    -0.1459   0.2269   0.3395   0.5230   1.0075   1.1588   1.2956   1.3388
     2.8430   2.8954   3.4813   3.5847   3.8614   4.2474   4.4649   4.7426
     4.8577   4.8599   4.9842   5.1637   5.1775   5.4111   5.4160   5.6988

          k = 0.3750-0.5000 0.0000 ( 18448 PWs)   bands (ev):

    -8.5187  -8.4215  -8.1801  -7.9683  -7.6459  -7.2831  -7.2376  -6.9173
    -6.7521  -4.7150  -4.6398  -4.5139  -4.1570  -3.6426  -2.9167  -2.4986
    -1.9524  -1.2946  -1.0189  -0.8982  -0.4413  -0.2771  -0.2108   0.0747
     0.1973   0.2995   0.4067   0.5016   1.1774   1.2570   1.2820   1.4041
     2.7972   3.0855   3.6705   3.7429   3.9114   4.0165   4.1670   4.5218
     4.7096   4.8544   4.9800   5.1102   5.2037   5.2995   5.4045   5.4489

          k =-0.5000-0.5000 0.0000 ( 18448 PWs)   bands (ev):

    -8.2136  -8.1877  -8.0592  -7.9711  -7.9389  -7.4077  -7.3414  -7.0526
    -6.9455  -4.7206  -4.6756  -4.3938  -4.3214  -3.9055  -2.9296  -2.4416
    -2.0431  -1.3773  -0.9960  -0.6434  -0.5719  -0.0329   0.0455   0.1500
     0.2732   0.6286   0.6336   0.6369   1.1787   1.3873   1.4471   1.5691
     2.7166   3.2704   3.4494   3.6299   3.6580   3.8439   3.9515   4.4439
     4.4857   4.8517   4.9665   5.0823   5.1634   5.2846   5.4410   5.6368

          k = 0.1250 0.0000 0.0000 ( 18420 PWs)   bands (ev):

    -9.9603  -9.5035  -8.3861  -6.9118  -6.7251  -6.4436  -6.0706  -5.7516
    -5.4547  -5.2500  -5.1060  -4.5369  -4.2921  -3.5022  -2.4473  -2.2111
    -1.8885  -1.8195  -1.5757  -0.9454  -0.8789  -0.8193  -0.7312  -0.6863
    -0.2932  -0.0738   0.0345   0.4410   0.7626   0.9390   1.1993   1.4569
     1.6864   2.0680   3.0079   3.1491   3.2658   3.5108   3.6779   3.8424
     3.8726   4.2295   4.4043   4.5823   4.8437   5.0595   5.3548   5.6514

          k = 0.2500 0.0000 0.0000 ( 18404 PWs)   bands (ev):

    -9.7595  -9.3162  -8.2505  -7.5651  -7.1853  -6.6213  -6.4175  -5.7435
    -5.3889  -5.0561  -4.7304  -4.1656  -3.9758  -3.3823  -2.5309  -2.2662
    -2.0636  -1.7341  -1.4118  -1.2173  -1.1620  -1.0330  -0.7822  -0.5430
    -0.4735  -0.3018  -0.0307   0.5176   0.5821   0.6367   1.2038   1.3703
     1.9804   2.3570   3.0686   3.6934   3.8829   3.9533   4.0228   4.2423
     4.3819   4.4633   4.6902   4.7820   5.1007   5.2777   5.4084   5.6175

          k = 0.3750 0.0000 0.0000 ( 18404 PWs)   bands (ev):

    -9.4336  -9.0351  -8.3572  -8.0105  -7.6271  -6.8886  -6.4358  -5.8086
    -5.3438  -4.8919  -4.6070  -4.0561  -3.6201  -3.0528  -2.4805  -2.2953
    -2.1639  -1.8880  -1.6930  -1.4141  -1.3543  -1.1140  -0.8231  -0.7034
    -0.2934  -0.1700  -0.0777   0.2367   0.3701   0.6868   1.2871   1.3546
     2.3183   2.5909   3.2300   3.7059   3.9004   4.2841   4.3734   4.6573
     4.9459   5.2020   5.2457   5.2647   5.4534   5.6825   5.7437   5.8571

          k =-0.5000 0.0000 0.0000 ( 18346 PWs)   bands (ev):

    -9.0769  -8.9587  -8.6275  -8.2490  -7.5590  -7.1723  -6.3349  -5.8781
    -5.3198  -4.8269  -4.5640  -4.0333  -3.5341  -2.9275  -2.3022  -2.2725
    -2.1130  -2.1097  -1.8593  -1.5184  -1.3996  -1.1097  -0.9376  -0.8086
    -0.1814  -0.1208  -0.0149   0.0874   0.3703   0.6569   1.2178   1.5367
     2.4484   2.7162   3.3788   3.6766   3.9470   4.0315   4.5866   4.7294
     4.9796   5.1805   5.3330   5.5905   5.7092   5.9347   6.1281   6.2061

          k =-0.1250 0.1250 0.0000 ( 18391 PWs)   bands (ev):

    -9.8934  -9.4389  -8.3271  -6.8804  -6.8233  -6.7130  -6.6948  -5.4241
    -5.2484  -4.9358  -4.8784  -4.8701  -4.4558  -3.3087  -2.4991  -2.1364
    -1.9403  -1.8356  -1.5107  -1.2711  -0.9939  -0.8221  -0.5730  -0.5022
    -0.3118  -0.1001   0.0183   0.5513   0.5785   0.8972   1.0389   1.4589
     1.7934   2.1544   3.1537   3.2389   3.4927   3.8044   3.8690   3.9153
     4.0935   4.2479   4.3245   4.7160   4.7646   5.0369   5.3931   5.6530

          k =-0.1250 0.2500 0.0000 ( 18428 PWs)   bands (ev):

    -9.6938  -9.2511  -8.1817  -7.5346  -7.2201  -6.8251  -6.7249  -5.6488
    -5.4180  -4.9712  -4.6690  -4.3512  -4.0849  -3.2783  -2.4509  -2.3687
    -1.9264  -1.7477  -1.5647  -1.3580  -1.2710  -0.7573  -0.6145  -0.4046
    -0.2851  -0.1582  -0.1057   0.3228   0.6467   0.8842   1.1697   1.2792
     2.0303   2.4159   3.2239   3.5186   3.8614   3.9545   4.0750   4.2143
     4.2888   4.5358   4.8671   4.9422   5.0641   5.3547   5.4887   5.8939

          k = 0.2500 0.1250 0.0000 ( 18428 PWs)   bands (ev):

    -9.6924  -9.2547  -8.2119  -7.5307  -7.1798  -6.5666  -6.4696  -6.4383
    -5.5595  -5.0186  -4.4782  -4.1770  -3.5953  -3.3852  -2.7223  -2.0952
    -2.0329  -1.8309  -1.5001  -1.4561  -1.1045  -0.9678  -0.6685  -0.4449
    -0.4252  -0.2815   0.1063   0.2291   0.6617   0.8756   1.2365   1.3835
     2.1550   2.2408   3.3416   3.4876   3.5988   3.9258   4.0113   4.0986
     4.4365   4.6191   4.8314   5.1476   5.2908   5.3660   5.4670   5.6870

          k = 0.2500-0.1250 0.0000 ( 18428 PWs)   bands (ev):

    -9.6938  -9.2512  -8.1818  -7.5343  -7.2203  -6.8251  -6.7246  -5.6488
    -5.4181  -4.9712  -4.6692  -4.3512  -4.0850  -3.2783  -2.4513  -2.3681
    -1.9267  -1.7477  -1.5649  -1.3578  -1.2710  -0.7570  -0.6143  -0.4046
    -0.2849  -0.1585  -0.1060   0.3230   0.6467   0.8845   1.1695   1.2789
     2.0304   2.4163   3.2248   3.5182   3.8602   3.9549   4.0749   4.2142
     4.2887   4.5362   4.8665   4.9423   5.0644   5.3555   5.4875   5.8947

          k =-0.1250 0.3750 0.0000 ( 18416 PWs)   bands (ev):

    -9.3699  -8.9687  -8.2944  -7.9593  -7.6233  -7.0207  -6.5887  -5.7937
    -5.6713  -4.9248  -4.5734  -4.1516  -3.6487  -3.1808  -2.5712  -2.2800
    -2.0599  -1.8870  -1.5617  -1.4173  -1.2466  -1.0104  -0.4742  -0.3855
    -0.3098  -0.1734  -0.0631   0.1370   0.6349   0.7380   1.2074   1.2999
     2.3747   2.7027   3.3463   3.8391   3.9830   4.0255   4.3452   4.5020
     4.5923   4.9128   5.2254   5.3974   5.5967   5.6518   5.7561   5.9902

          k = 0.3750 0.1250 0.0000 ( 18416 PWs)   bands (ev):

    -9.3671  -8.9753  -8.3115  -7.9718  -7.5880  -6.8694  -6.4773  -6.2835
    -5.6596  -4.8908  -4.4759  -4.0429  -3.5846  -3.1039  -2.6275  -2.1747
    -2.1677  -1.7569  -1.6452  -1.4370  -1.1813  -0.8974  -0.7483  -0.6386
    -0.3407  -0.2209   0.0587   0.1597   0.5441   0.8218   1.1865   1.3861
     2.4992   2.5357   3.4628   3.7370   4.0221   4.1724   4.4141   4.5373
     4.8750   4.9148   4.9947   5.1810   5.2627   5.6045   5.8868   6.0215

          k = 0.3750-0.1250 0.0000 ( 18416 PWs)   bands (ev):

    -9.3699  -8.9688  -8.2948  -7.9586  -7.6236  -7.0203  -6.5886  -5.7937
    -5.6714  -4.9248  -4.5736  -4.1517  -3.6488  -3.1811  -2.5709  -2.2801
    -2.0601  -1.8870  -1.5617  -1.4173  -1.2466  -1.0104  -0.4733  -0.3859
    -0.3100  -0.1735  -0.0628   0.1367   0.6349   0.7378   1.2075   1.2998
     2.3745   2.7029   3.3473   3.8389   3.9825   4.0249   4.3449   4.5029
     4.5921   4.9127   5.2254   5.3967   5.5967   5.6530   5.7557   5.9889

          k =-0.5000 0.1250 0.0000 ( 18430 PWs)   bands (ev):

    -9.0119  -8.8956  -8.5713  -8.2061  -7.5275  -7.1923  -6.4829  -5.9868
    -5.7653  -4.8119  -4.6203  -3.9006  -3.7145  -3.0650  -2.5048  -2.2564
    -2.1148  -1.8467  -1.6931  -1.4356  -1.2549  -0.9370  -0.6250  -0.5968
    -0.3266  -0.0451   0.0044   0.1826   0.4103   0.6592   1.2214   1.4763
     2.6182   2.7734   3.5071   3.7907   3.9935   4.0972   4.4157   4.6905
     4.9024   5.2315   5.3426   5.5657   5.6739   5.7374   5.8143   6.0229

          k =-0.2500 0.2500 0.0000 ( 18415 PWs)   bands (ev):

    -9.4974  -9.0637  -8.0159  -7.5005  -7.3951  -7.3826  -6.7902  -5.9109
    -5.9089  -4.5761  -4.5757  -4.4073  -4.1208  -3.3790  -2.6624  -2.0106
    -1.9870  -1.6497  -1.6390  -1.2817  -1.2187  -0.6513  -0.4242  -0.3283
    -0.2309  -0.1285   0.1524   0.2036   0.7985   0.9850   1.1544   1.4822
     2.1950   2.4547   3.3338   3.6807   3.7521   3.9458   3.9987   4.2028
     4.4572   4.8354   4.9701   5.1196   5.2041   5.5150   5.6231   5.8404

          k =-0.2500 0.3750 0.0000 ( 18449 PWs)   bands (ev):

    -9.1790  -8.7804  -8.1289  -7.8304  -7.6064  -7.3687  -6.7747  -6.2490
    -6.2025  -4.6817  -4.5326  -4.4546  -3.7803  -3.5484  -2.8159  -2.3173
    -1.7259  -1.5807  -1.3281  -1.1065  -1.0251  -0.6294  -0.5575  -0.2965
    -0.1090   0.0070   0.1176   0.2334   0.9596   1.0371   1.2194   1.3313
     2.5040   2.7056   3.5976   3.8133   3.9281   4.0679   4.1632   4.4434
     4.6224   4.9665   4.9992   5.2018   5.3113   5.5405   5.8197   5.9158

          k = 0.3750 0.2500 0.0000 ( 18449 PWs)   bands (ev):

    -9.1725  -8.7957  -8.1721  -7.8773  -7.5277  -7.0111  -6.9455  -6.4817
    -6.2416  -4.9624  -4.5270  -4.2391  -3.6669  -3.0662  -2.8509  -2.3236
    -2.1280  -1.6135  -1.1324  -1.0545  -0.9415  -0.8995  -0.6618  -0.3541
    -0.2202   0.0594   0.2302   0.4340   0.6615   1.0021   1.1979   1.3099
     2.5774   2.7873   3.5822   3.8006   3.9392   4.2646   4.2941   4.4270
     4.8006   4.8410   5.0024   5.1357   5.2091   5.5216   5.7810   5.8245

          k = 0.3750-0.2500 0.0000 ( 18449 PWs)   bands (ev):

    -9.1790  -8.7804  -8.1293  -7.8298  -7.6065  -7.3687  -6.7745  -6.2490
    -6.2027  -4.6816  -4.5328  -4.4545  -3.7804  -3.5484  -2.8158  -2.3174
    -1.7262  -1.5808  -1.3282  -1.1062  -1.0251  -0.6287  -0.5580  -0.2965
    -0.1094   0.0074   0.1178   0.2332   0.9601   1.0368   1.2192   1.3311
     2.5041   2.7060   3.5977   3.8134   3.9276   4.0683   4.1627   4.4432
     4.6223   4.9666   5.0001   5.2008   5.3112   5.5405   5.8200   5.9158

          k =-0.5000 0.2500 0.0000 ( 18476 PWs)   bands (ev):

    -8.8205  -8.7106  -8.4095  -8.0910  -7.4726  -7.2644  -6.8445  -6.3980
    -6.3606  -4.8509  -4.6203  -4.1941  -3.9038  -3.2819  -2.8412  -2.3543
    -1.9600  -1.6050  -1.1962  -0.9530  -0.7481  -0.7310  -0.5167  -0.3726
     0.0041   0.0283   0.1440   0.3231   0.6719   0.8677   1.2880   1.3645
     2.8016   2.9034   3.7692   3.9584   4.0487   4.2339   4.3363   4.5919
     4.7465   4.9142   5.0036   5.2403   5.4389   5.5353   5.6413   5.7717

          k =-0.3750 0.3750 0.0000 ( 18460 PWs)   bands (ev):

    -8.8714  -8.4962  -7.9184  -7.8581  -7.7985  -7.4938  -6.9937  -6.7073
    -6.5708  -4.6572  -4.6561  -4.3919  -3.9331  -3.9106  -2.9001  -2.5454
    -1.6121  -1.1474  -1.1354  -0.9984  -0.6993  -0.6386  -0.3094  -0.0888
     0.1169   0.1931   0.2632   0.6600   0.9643   1.3073   1.3755   1.4190
     2.6143   2.8049   3.5411   3.6640   4.0521   4.2400   4.3135   4.3921
     4.7729   4.8658   5.0114   5.0711   5.1407   5.3751   5.4160   5.7662

          k =-0.5000 0.3750 0.0000 ( 18448 PWs)   bands (ev):

    -8.5189  -8.4212  -8.1808  -7.9676  -7.6459  -7.2831  -7.2375  -6.9175
    -6.7520  -4.7145  -4.6405  -4.5139  -4.1569  -3.6425  -2.9168  -2.4987
    -1.9524  -1.2943  -1.0183  -0.8993  -0.4409  -0.2773  -0.2108   0.0756
     0.1972   0.2988   0.4068   0.5018   1.1775   1.2572   1.2819   1.4039
     2.7972   3.0857   3.6712   3.7428   3.9106   4.0164   4.1670   4.5225
     4.7098   4.8543   4.9798   5.1100   5.2032   5.2988   5.4021   5.4494

     the Fermi energy is     1.6166 ev

!    total energy              =    -747.27423011 Ry
     Harris-Foulkes estimate   =    -747.27423011 Ry
     estimated scf accuracy    <          2.0E-11 Ry

     total all-electron energy =     -9280.808070 Ry

     The total energy is the sum of the following terms:

     one-electron contribution =    -435.22428373 Ry
     hartree contribution      =     239.05501759 Ry
     xc contribution           =     -78.22719555 Ry
     ewald contribution        =     116.18333602 Ry
     one-center paw contrib.   =    -589.05995983 Ry
     smearing contrib. (-TS)   =      -0.00114460 Ry

     convergence has been achieved in  17 iterations

     Forces acting on atoms (cartesian axes, Ry/au):

     atom    1 type  1   force =    -0.00000652    0.00001281    0.00000674
     atom    2 type  1   force =    -0.00000470    0.00000265   -0.00000052
     atom    3 type  1   force =    -0.00000081    0.00000632   -0.00000036
     atom    4 type  1   force =     0.00000457    0.00000166    0.00000887
     atom    5 type  1   force =    -0.00000003    0.00001592    0.00000309
     atom    6 type  1   force =     0.00000512   -0.00000366   -0.00000354
     atom    7 type  1   force =    -0.00000588    0.00000691    0.00000469
     atom    8 type  1   force =    -0.00001086    0.00000639    0.00000207
     atom    9 type  1   force =     0.00000980   -0.00001064   -0.00000229
     atom   10 type  1   force =    -0.00000352   -0.00000874    0.00000170
     atom   11 type  1   force =     0.00000213   -0.00000147    0.00000045
     atom   12 type  1   force =    -0.00000559    0.00000433    0.00000073
     atom   13 type  1   force =     0.00000298   -0.00000269   -0.00000046
     atom   14 type  1   force =     0.00000034   -0.00000690   -0.00001584
     atom   15 type  1   force =     0.00001148   -0.00001796   -0.00000494
     atom   16 type  1   force =     0.00000150   -0.00000494   -0.00000040

     Total force =     0.000047     Total SCF correction =     0.000003


     Computing stress (Cartesian axis) and pressure

          total   stress  (Ry/bohr**3)                   (kbar)     P=   -2.05
  -0.00002045   0.00005091   0.00000031         -3.01      7.49      0.05
   0.00005091  -0.00002027  -0.00000003          7.49     -2.98     -0.00
   0.00000031  -0.00000003  -0.00000109          0.05     -0.00     -0.16


     Writing output data file Si.Fd-3m_2ML.save/
 
     init_run     :      1.67s CPU      2.15s WALL (       1 calls)
     electrons    :    151.33s CPU    182.39s WALL (       1 calls)
     forces       :      0.45s CPU      0.49s WALL (       1 calls)
     stress       :      2.32s CPU      2.94s WALL (       1 calls)

     Called by init_run:
     wfcinit      :      0.75s CPU      0.77s WALL (       1 calls)
     potinit      :      0.45s CPU      0.77s WALL (       1 calls)
     hinit0       :      0.19s CPU      0.19s WALL (       1 calls)

     Called by electrons:
     c_bands      :    123.37s CPU    144.76s WALL (      18 calls)
     sum_band     :      8.83s CPU     12.20s WALL (      18 calls)
     v_of_rho     :      1.03s CPU      1.05s WALL (      18 calls)
     newd         :      0.15s CPU      0.22s WALL (      18 calls)
     PAW_pot      :      3.19s CPU      6.03s WALL (      18 calls)
     mix_rho      :     11.78s CPU     11.89s WALL (      18 calls)

     Called by c_bands:
     init_us_2    :      0.46s CPU      0.46s WALL (     117 calls)
     ccgdiagg     :     93.74s CPU     94.42s WALL (      54 calls)
     wfcrot       :      8.94s CPU      9.04s WALL (      51 calls)

     Called by sum_band:
     sum_band:bec :      0.00s CPU      0.00s WALL (      54 calls)
     addusdens    :      0.90s CPU      1.72s WALL (      18 calls)

     Called by *cgdiagg:
     h_psi        :     58.50s CPU     59.07s WALL (    6827 calls)
     s_psi        :     24.50s CPU     24.58s WALL (   13603 calls)
     cdiaghg      :      0.05s CPU      0.03s WALL (      51 calls)

     Called by h_psi:
     h_psi:pot    :     58.23s CPU     58.76s WALL (    6827 calls)
     h_psi:calbec :     13.91s CPU     14.07s WALL (    6827 calls)
     vloc_psi     :     31.60s CPU     31.91s WALL (    6827 calls)
     add_vuspsi   :     12.67s CPU     12.74s WALL (    6827 calls)
     hs_1psi      :     62.92s CPU     63.41s WALL (    6776 calls)
     s_1psi       :     24.24s CPU     24.46s WALL (    6776 calls)

     General routines
     calbec       :     26.48s CPU     26.81s WALL (   13672 calls)
     fft          :      0.80s CPU      0.85s WALL (     224 calls)
     ffts         :      5.82s CPU      5.95s WALL (    1764 calls)
     fftw         :     27.82s CPU     28.07s WALL (   21136 calls)
 
     Parallel routines
     fft_scatt_xy :      6.70s CPU      6.82s WALL (   23124 calls)
     fft_scatt_yz :      9.19s CPU      9.53s WALL (   23124 calls)
 
     PWSCF        :   2m36.58s CPU   3m58.76s WALL

 
   This run was terminated on:  13:51:28   3Sep2021            

=------------------------------------------------------------------------------=
   JOB DONE.
=------------------------------------------------------------------------------=
Note: The following floating-point exceptions are signalling:Note: The following floating-point exceptions are signalling: IEEE_UNDERFLOW_FLAG IEEE_DENORMAL
Note: The following floating-point exceptions are signalling: IEEE_UNDERFLOW_FLAG IEEE_DENORMAL
 IEEE_UNDERFLOW_FLAG IEEE_DENORMAL
Note: The following floating-point exceptions are signalling: IEEE_UNDERFLOW_FLAG IEEE_DENORMAL
