
     Program PWSCF v.6.4.1 starts on 10Sep2021 at  0:58:24 

     This program is part of the open-source Quantum ESPRESSO suite
     for quantum simulation of materials; please cite
         "P. Giannozzi et al., J. Phys.:Condens. Matter 21 395502 (2009);
         "P. Giannozzi et al., J. Phys.:Condens. Matter 29 465901 (2017);
          URL http://www.quantum-espresso.org", 
     in publications or presentations arising from this work. More details at
     http://www.quantum-espresso.org/quote

     Parallel version (MPI), running on    60 processors

     MPI processes distributed on    15 nodes
     K-points division:     npool     =      15
     R & G space division:  proc/nbgrp/npool/nimage =       4
     Reading input from Si.I4_1amd_7ML.scf.in

     Current dimensions of program PWSCF are:
     Max number of different atomic species (ntypx) = 10
     Max number of k-points (npk) =  40000
     Max angular momentum in pseudopotentials (lmaxx) =  3
               file Si.pbe-nl-kjpaw_psl.1.0.0.UPF: wavefunction(s)  3S 3P renormalized

     Subspace diagonalization in iterative solution of the eigenvalue problem:
     a serial algorithm will be used

 
     Parallelization info
     --------------------
     sticks:   dense  smooth     PW     G-vecs:    dense   smooth      PW
     Min         284     284     85                78416    78416   12503
     Max         285     285     86                78441    78441   12512
     Sum        1137    1137    341               313701   313701   50027
 

     Title: 
     Relaxation of atomic positions for single monolayer slab of Si using PBE   


     bravais-lattice index     =            0
     lattice parameter (alat)  =       9.0599  a.u.
     unit-cell volume          =    8031.5233 (a.u.)^3
     number of atoms/cell      =           56
     number of atomic types    =            1
     number of electrons       =       224.00
     number of Kohn-Sham states=          168
     kinetic-energy cutoff     =      45.0000  Ry
     charge density cutoff     =     175.0000  Ry
     convergence threshold     =      1.0E-08
     mixing beta               =       0.5000
     number of iterations used =            8  local-TF  mixing
     Exchange-correlation      = SLA PW PBX PBC ( 1  4  3  4 0 0)

     celldm(1)=   9.059928  celldm(2)=   0.000000  celldm(3)=   0.000000
     celldm(4)=   0.000000  celldm(5)=   0.000000  celldm(6)=   0.000000

     crystal axes: (cart. coord. in units of alat)
               a(1) = (   1.000000   0.000000   0.000000 )  
               a(2) = (   0.000000   1.000000   0.000000 )  
               a(3) = (   0.000000   0.000000  10.800000 )  

     reciprocal axes: (cart. coord. in units 2 pi/alat)
               b(1) = (  1.000000  0.000000  0.000000 )  
               b(2) = (  0.000000  1.000000  0.000000 )  
               b(3) = (  0.000000  0.000000  0.092593 )  


     PseudoPot. # 1 for Si read from file:
     /share/pseudo/Si.pbe-nl-kjpaw_psl.1.0.0.UPF
     MD5 check sum: 3686bff6734aab787fb18a3c8374d51f
     Pseudo is Projector augmented-wave + core cor, Zval =  4.0
     Generated using "atomic" code by A. Dal Corso v.6.3
     Shape of augmentation charge: PSQ
     Using radial grid of 1141 points,  4 beta functions with: 
                l(1) =   0
                l(2) =   0
                l(3) =   1
                l(4) =   1
     Q(r) pseudized with 0 coefficients 


     atomic species   valence    mass     pseudopotential
        Si             4.00    28.08600     Si( 1.00)

     No symmetry found



   Cartesian axes

     site n.     atom                  positions (alat units)
         1           Si  tau(   1) = (  -0.1509571   0.0000101   1.5646933  )
         2           Si  tau(   2) = (   0.4812528   0.5000133   1.8119063  )
         3           Si  tau(   3) = (  -0.0103031   0.5000108   1.6592551  )
         4           Si  tau(   4) = (   0.4922582   0.0000082   1.9248347  )
         5           Si  tau(   5) = (   0.0001942   0.0000093   2.0589418  )
         6           Si  tau(   6) = (   0.5055026   0.5000108   2.3394165  )
         7           Si  tau(   7) = (   0.0044174   0.5000116   2.1956249  )
         8           Si  tau(   8) = (   0.5147107   0.0000106   2.4773259  )
         9           Si  tau(   9) = (   0.0097560   0.0000115   2.6401009  )
        10           Si  tau(  10) = (   0.5067986   0.5000097   2.9092788  )
        11           Si  tau(  11) = (   0.0067741   0.5000095   2.7578249  )
        12           Si  tau(  12) = (   0.5065556   0.0000113   3.0370396  )
        13           Si  tau(  13) = (   0.0060596   0.0000109   3.1758296  )
        14           Si  tau(  14) = (   0.5066271   0.5000108   3.4562080  )
        15           Si  tau(  15) = (   0.0074049   0.5000107   3.3173436  )
        16           Si  tau(  16) = (   0.5045664   0.0000106   3.5934420  )
        17           Si  tau(  17) = (   0.0046139   0.0000106   3.7387738  )
        18           Si  tau(  18) = (   0.5038175   0.5000108   4.0111349  )
        19           Si  tau(  19) = (   0.0038803   0.5000108   3.8703158  )
        20           Si  tau(  20) = (   0.5038264   0.0000101   4.1516056  )
        21           Si  tau(  21) = (   0.0036124   0.0000097   4.2873283  )
        22           Si  tau(  22) = (   0.5022433   0.5000107   4.5677182  )
        23           Si  tau(  23) = (   0.0024253   0.5000107   4.4293715  )
        24           Si  tau(  24) = (   0.5015289   0.0000097   4.7032389  )
        25           Si  tau(  25) = (   0.0014305   0.0000099   4.8458709  )
        26           Si  tau(  26) = (   0.5008394   0.5000107   5.1201665  )
        27           Si  tau(  27) = (   0.0011128   0.5000105   4.9807488  )
        28           Si  tau(  28) = (   0.4999107   0.0000102   5.2620704  )
        29           Si  tau(  29) = (   0.0001050   0.0000103   5.3967155  )
        30           Si  tau(  30) = (   0.4988989   0.5000111   5.6779870  )
        31           Si  tau(  31) = (  -0.0008270   0.5000108   5.5386286  )
        32           Si  tau(  32) = (   0.4985723   0.0000105   5.8129281  )
        33           Si  tau(  33) = (  -0.0015275   0.0000106   5.9554938  )
        34           Si  tau(  34) = (   0.4975644   0.5000110   6.2293558  )
        35           Si  tau(  35) = (  -0.0022523   0.5000112   6.0910933  )
        36           Si  tau(  36) = (   0.4963706   0.0000107   6.3714656  )
        37           Si  tau(  37) = (  -0.0038480   0.0000107   6.5071351  )
        38           Si  tau(  38) = (   0.4960956   0.5000108   6.7884671  )
        39           Si  tau(  39) = (  -0.0038386   0.5000111   6.6476299  )
        40           Si  tau(  40) = (   0.4953662   0.0000113   6.9200217  )
        41           Si  tau(  41) = (  -0.0045854   0.0000116   7.0653392  )
        42           Si  tau(  42) = (   0.4925987   0.5000104   7.3414175  )
        43           Si  tau(  43) = (  -0.0066272   0.5000105   7.2025118  )
        44           Si  tau(  44) = (   0.4939562   0.0000121   7.4828821  )
        45           Si  tau(  45) = (  -0.0065294   0.0000114   7.6217023  )
        46           Si  tau(  46) = (   0.4932723   0.5000124   7.9008512  )
        47           Si  tau(  47) = (  -0.0067512   0.5000111   7.7494114  )
        48           Si  tau(  48) = (   0.4902892   0.0000102   8.0186157  )
        49           Si  tau(  49) = (  -0.0146596   0.0000101   8.1813513  )
        50           Si  tau(  50) = (   0.4956451   0.5000110   8.4630192  )
        51           Si  tau(  51) = (  -0.0054460   0.5000124   8.3192539  )
        52           Si  tau(  52) = (   0.4998687   0.0000114   8.5997193  )
        53           Si  tau(  53) = (   0.0078133   0.0000115   8.7338364  )
        54           Si  tau(  54) = (   0.5103760   0.5000108   8.9993410  )
        55           Si  tau(  55) = (   0.0188299   0.5000109   8.8467267  )
        56           Si  tau(  56) = (   0.6510133   0.0000108   9.0939613  )

     number of k points=   113  gaussian smearing, width (Ry)=  0.0100

     Number of k-points >= 100: set verbosity='high' to print them.

     Dense  grid:   313701 G-vectors     FFT dimensions: (  40,  40, 432)

     Estimated max dynamical RAM per process >     422.13 MB

     Estimated total dynamical RAM >      24.73 GB

     Initial potential from superposition of free atoms

     starting charge  223.96868, renormalised to  224.00000

     negative rho (up, down):  1.555E-04 0.000E+00
     Starting wfcs are  224 randomized atomic wfcs
     Checking if some PAW data can be deallocated... 

     total cpu time spent up to now is      112.2 secs

     Self-consistent Calculation

     iteration #  1     ecut=    45.00 Ry     beta= 0.50
     CG style diagonalization
     ethr =  1.00E-02,  avg # of iterations =  3.3

     Threshold (ethr) on eigenvalues was too large:
     Diagonalizing with lowered threshold

     CG style diagonalization
     ethr =  7.39E-04,  avg # of iterations =  2.6

     total cpu time spent up to now is     2622.9 secs

     total energy              =   -2615.33987160 Ry
     Harris-Foulkes estimate   =   -2615.38845813 Ry
     estimated scf accuracy    <       1.81910780 Ry

     iteration #  2     ecut=    45.00 Ry     beta= 0.50
     CG style diagonalization
     ethr =  8.12E-04,  avg # of iterations =  3.0

     total cpu time spent up to now is     3440.5 secs

     total energy              =   -2615.28231337 Ry
     Harris-Foulkes estimate   =   -2615.39298571 Ry
     estimated scf accuracy    <       1.26681565 Ry

     iteration #  3     ecut=    45.00 Ry     beta= 0.50
     CG style diagonalization
     ethr =  5.66E-04,  avg # of iterations =  3.0

     total cpu time spent up to now is     4230.5 secs

     total energy              =   -2615.34198205 Ry
     Harris-Foulkes estimate   =   -2615.35389781 Ry
     estimated scf accuracy    <       0.07713483 Ry

     iteration #  4     ecut=    45.00 Ry     beta= 0.50
     CG style diagonalization
     c_bands:  3 eigenvalues not converged
     c_bands:  5 eigenvalues not converged
     c_bands:  3 eigenvalues not converged
     c_bands:  3 eigenvalues not converged
     c_bands:  5 eigenvalues not converged
     c_bands:  5 eigenvalues not converged
     c_bands:  1 eigenvalues not converged
     c_bands:  1 eigenvalues not converged
     ethr =  3.44E-05,  avg # of iterations =  6.8

     total cpu time spent up to now is     7004.1 secs

     total energy              =   -2615.35359959 Ry
     Harris-Foulkes estimate   =   -2615.35586896 Ry
     estimated scf accuracy    <       0.06597566 Ry

     iteration #  5     ecut=    45.00 Ry     beta= 0.50
     CG style diagonalization
     c_bands:  1 eigenvalues not converged
     c_bands:  1 eigenvalues not converged
     c_bands:  2 eigenvalues not converged
     c_bands:  1 eigenvalues not converged
     ethr =  2.95E-05,  avg # of iterations =  3.1

     total cpu time spent up to now is     7935.8 secs

     total energy              =   -2615.35014392 Ry
     Harris-Foulkes estimate   =   -2615.35445680 Ry
     estimated scf accuracy    <       0.05838933 Ry

     iteration #  6     ecut=    45.00 Ry     beta= 0.50
     CG style diagonalization
     ethr =  2.61E-05,  avg # of iterations =  3.0

     total cpu time spent up to now is     8737.9 secs

     total energy              =   -2615.34887747 Ry
     Harris-Foulkes estimate   =   -2615.35099377 Ry
     estimated scf accuracy    <       0.02038885 Ry

     iteration #  7     ecut=    45.00 Ry     beta= 0.50
     CG style diagonalization
     c_bands:  2 eigenvalues not converged
     c_bands:  2 eigenvalues not converged
     c_bands:  1 eigenvalues not converged
     ethr =  9.10E-06,  avg # of iterations =  3.3

     negative rho (up, down):  7.433E-03 0.000E+00

     total cpu time spent up to now is     9673.4 secs

     total energy              =   -2615.34832338 Ry
     Harris-Foulkes estimate   =   -2615.34959811 Ry
     estimated scf accuracy    <       0.00348362 Ry

     iteration #  8     ecut=    45.00 Ry     beta= 0.50
     CG style diagonalization
     c_bands:  1 eigenvalues not converged
     c_bands:  1 eigenvalues not converged
     c_bands:  3 eigenvalues not converged
     c_bands:  3 eigenvalues not converged
     c_bands:  2 eigenvalues not converged
     c_bands:  2 eigenvalues not converged
     c_bands:  1 eigenvalues not converged
     ethr =  1.56E-06,  avg # of iterations =  4.7

     negative rho (up, down):  1.216E-02 0.000E+00

     total cpu time spent up to now is    11865.0 secs

     total energy              =   -2615.34860437 Ry
     Harris-Foulkes estimate   =   -2615.34874393 Ry
     estimated scf accuracy    <       0.00250792 Ry

     iteration #  9     ecut=    45.00 Ry     beta= 0.50
     CG style diagonalization
     c_bands:  1 eigenvalues not converged
     c_bands:  1 eigenvalues not converged
     c_bands:  3 eigenvalues not converged
     ethr =  1.12E-06,  avg # of iterations =  3.2

     negative rho (up, down):  9.206E-03 0.000E+00

     total cpu time spent up to now is    12799.5 secs

     total energy              =   -2615.34875675 Ry
     Harris-Foulkes estimate   =   -2615.34871342 Ry
     estimated scf accuracy    <       0.00067945 Ry

     iteration # 10     ecut=    45.00 Ry     beta= 0.50
     CG style diagonalization
     c_bands:  1 eigenvalues not converged
     ethr =  3.03E-07,  avg # of iterations =  3.1

     negative rho (up, down):  1.633E-03 0.000E+00

     total cpu time spent up to now is    13600.3 secs

     total energy              =   -2615.34875023 Ry
     Harris-Foulkes estimate   =   -2615.34879176 Ry
     estimated scf accuracy    <       0.00025430 Ry

     iteration # 11     ecut=    45.00 Ry     beta= 0.50
     CG style diagonalization
     ethr =  1.14E-07,  avg # of iterations =  3.2

     negative rho (up, down):  2.159E-04 0.000E+00

     total cpu time spent up to now is    14449.8 secs

     total energy              =   -2615.34876700 Ry
     Harris-Foulkes estimate   =   -2615.34876579 Ry
     estimated scf accuracy    <       0.00001269 Ry

     iteration # 12     ecut=    45.00 Ry     beta= 0.50
     CG style diagonalization
     c_bands:  1 eigenvalues not converged
     ethr =  5.66E-09,  avg # of iterations =  4.2

     negative rho (up, down):  2.942E-05 0.000E+00

     total cpu time spent up to now is    15811.3 secs

     total energy              =   -2615.34877622 Ry
     Harris-Foulkes estimate   =   -2615.34877528 Ry
     estimated scf accuracy    <       0.00000569 Ry

     iteration # 13     ecut=    45.00 Ry     beta= 0.50
     CG style diagonalization
     c_bands:  1 eigenvalues not converged
     ethr =  2.54E-09,  avg # of iterations =  3.1

     negative rho (up, down):  7.275E-05 0.000E+00

     total cpu time spent up to now is    16679.8 secs

     total energy              =   -2615.34877670 Ry
     Harris-Foulkes estimate   =   -2615.34877672 Ry
     estimated scf accuracy    <       0.00000029 Ry

     iteration # 14     ecut=    45.00 Ry     beta= 0.50
     CG style diagonalization
     ethr =  1.31E-10,  avg # of iterations =  4.0

     negative rho (up, down):  6.013E-05 0.000E+00

     total cpu time spent up to now is    17982.0 secs

     total energy              =   -2615.34877686 Ry
     Harris-Foulkes estimate   =   -2615.34877688 Ry
     estimated scf accuracy    <       0.00000020 Ry

     iteration # 15     ecut=    45.00 Ry     beta= 0.50
     CG style diagonalization
     ethr =  9.04E-11,  avg # of iterations =  3.1

     negative rho (up, down):  5.656E-05 0.000E+00

     total cpu time spent up to now is    18768.8 secs

     total energy              =   -2615.34877687 Ry
     Harris-Foulkes estimate   =   -2615.34877689 Ry
     estimated scf accuracy    <       0.00000002 Ry

     iteration # 16     ecut=    45.00 Ry     beta= 0.50
     CG style diagonalization
     ethr =  9.03E-12,  avg # of iterations =  3.4

     negative rho (up, down):  5.455E-05 0.000E+00

     total cpu time spent up to now is    19648.3 secs

     End of self-consistent calculation

     Number of k-points >= 100: set verbosity='high' to print the bands.

     the Fermi energy is     5.6836 ev

!    total energy              =   -2615.34877688 Ry
     Harris-Foulkes estimate   =   -2615.34877688 Ry
     estimated scf accuracy    <          9.6E-10 Ry

     total all-electron energy =    -32482.717216 Ry

     The total energy is the sum of the following terms:

     one-electron contribution =   -9620.20990003 Ry
     hartree contribution      =    4914.76274796 Ry
     xc contribution           =    -276.67271803 Ry
     ewald contribution        =    4428.06131664 Ry
     one-center paw contrib.   =   -2061.27652986 Ry
     smearing contrib. (-TS)   =      -0.01369357 Ry

     convergence has been achieved in  16 iterations
forrtl: No space left on device
forrtl: severe (28): CLOSE error, unit 4, file "Unknown"
Image              PC                Routine            Line        Source             
pw.x               0000000000CEB43E  Unknown               Unknown  Unknown
pw.x               0000000000CDD776  Unknown               Unknown  Unknown
pw.x               00000000008DEAF2  io_base_mp_write_         592  io_base.f90
pw.x               00000000004C75F9  io_rho_xml_mp_wri          65  io_rho_xml.f90
pw.x               000000000040BFF7  electrons_scf_            899  electrons.f90
pw.x               00000000004093C4  electrons_                152  electrons.f90
pw.x               0000000000575CAA  run_pwscf_                133  run_pwscf.f90
pw.x               0000000000406F75  MAIN__                     98  pwscf.f90
pw.x               0000000000406DDE  Unknown               Unknown  Unknown
libc-2.24.so       00002B2C88B5E2E1  __libc_start_main     Unknown  Unknown
pw.x               0000000000406CAA  Unknown               Unknown  Unknown

===================================================================================
=   BAD TERMINATION OF ONE OF YOUR APPLICATION PROCESSES
=   RANK 0 PID 12088 RUNNING AT pleiades01.uwp.edu
=   EXIT STATUS: 28
===================================================================================

===================================================================================
=   BAD TERMINATION OF ONE OF YOUR APPLICATION PROCESSES
=   RANK 1 PID 12089 RUNNING AT pleiades01.uwp.edu
=   KILLED BY SIGNAL: 9 (Killed)
===================================================================================

===================================================================================
=   BAD TERMINATION OF ONE OF YOUR APPLICATION PROCESSES
=   RANK 2 PID 12090 RUNNING AT pleiades01.uwp.edu
=   KILLED BY SIGNAL: 9 (Killed)
===================================================================================

===================================================================================
=   BAD TERMINATION OF ONE OF YOUR APPLICATION PROCESSES
=   RANK 3 PID 12091 RUNNING AT pleiades01.uwp.edu
=   KILLED BY SIGNAL: 9 (Killed)
===================================================================================

===================================================================================
=   BAD TERMINATION OF ONE OF YOUR APPLICATION PROCESSES
=   RANK 56 PID 12284 RUNNING AT pleiades15.uwp.edu
=   KILLED BY SIGNAL: 9 (Killed)
===================================================================================

===================================================================================
=   BAD TERMINATION OF ONE OF YOUR APPLICATION PROCESSES
=   RANK 57 PID 12285 RUNNING AT pleiades15.uwp.edu
=   KILLED BY SIGNAL: 9 (Killed)
===================================================================================

===================================================================================
=   BAD TERMINATION OF ONE OF YOUR APPLICATION PROCESSES
=   RANK 44 PID 5557 RUNNING AT pleiades12.uwp.edu
=   KILLED BY SIGNAL: 9 (Killed)
===================================================================================

===================================================================================
=   BAD TERMINATION OF ONE OF YOUR APPLICATION PROCESSES
=   RANK 45 PID 5558 RUNNING AT pleiades12.uwp.edu
=   KILLED BY SIGNAL: 9 (Killed)
===================================================================================

===================================================================================
=   BAD TERMINATION OF ONE OF YOUR APPLICATION PROCESSES
=   RANK 58 PID 12286 RUNNING AT pleiades15.uwp.edu
=   KILLED BY SIGNAL: 9 (Killed)
===================================================================================

===================================================================================
=   BAD TERMINATION OF ONE OF YOUR APPLICATION PROCESSES
=   RANK 59 PID 12287 RUNNING AT pleiades15.uwp.edu
=   KILLED BY SIGNAL: 9 (Killed)
===================================================================================

===================================================================================
=   BAD TERMINATION OF ONE OF YOUR APPLICATION PROCESSES
=   RANK 48 PID 20551 RUNNING AT pleiades14.uwp.edu
=   KILLED BY SIGNAL: 9 (Killed)
===================================================================================

===================================================================================
=   BAD TERMINATION OF ONE OF YOUR APPLICATION PROCESSES
=   RANK 49 PID 20552 RUNNING AT pleiades14.uwp.edu
=   KILLED BY SIGNAL: 9 (Killed)
===================================================================================

===================================================================================
=   BAD TERMINATION OF ONE OF YOUR APPLICATION PROCESSES
=   RANK 46 PID 5559 RUNNING AT pleiades12.uwp.edu
=   KILLED BY SIGNAL: 9 (Killed)
===================================================================================

===================================================================================
=   BAD TERMINATION OF ONE OF YOUR APPLICATION PROCESSES
=   RANK 47 PID 5560 RUNNING AT pleiades12.uwp.edu
=   KILLED BY SIGNAL: 9 (Killed)
===================================================================================

===================================================================================
=   BAD TERMINATION OF ONE OF YOUR APPLICATION PROCESSES
=   RANK 40 PID 5532 RUNNING AT pleiades11.uwp.edu
=   KILLED BY SIGNAL: 9 (Killed)
===================================================================================

===================================================================================
=   BAD TERMINATION OF ONE OF YOUR APPLICATION PROCESSES
=   RANK 41 PID 5533 RUNNING AT pleiades11.uwp.edu
=   KILLED BY SIGNAL: 9 (Killed)
===================================================================================

===================================================================================
=   BAD TERMINATION OF ONE OF YOUR APPLICATION PROCESSES
=   RANK 50 PID 20553 RUNNING AT pleiades14.uwp.edu
=   KILLED BY SIGNAL: 9 (Killed)
===================================================================================

===================================================================================
=   BAD TERMINATION OF ONE OF YOUR APPLICATION PROCESSES
=   RANK 51 PID 20554 RUNNING AT pleiades14.uwp.edu
=   KILLED BY SIGNAL: 9 (Killed)
===================================================================================

===================================================================================
=   BAD TERMINATION OF ONE OF YOUR APPLICATION PROCESSES
=   RANK 42 PID 5534 RUNNING AT pleiades11.uwp.edu
=   KILLED BY SIGNAL: 9 (Killed)
===================================================================================

===================================================================================
=   BAD TERMINATION OF ONE OF YOUR APPLICATION PROCESSES
=   RANK 43 PID 5535 RUNNING AT pleiades11.uwp.edu
=   KILLED BY SIGNAL: 9 (Killed)
===================================================================================

===================================================================================
=   BAD TERMINATION OF ONE OF YOUR APPLICATION PROCESSES
=   RANK 16 PID 20468 RUNNING AT pleiades05.uwp.edu
=   KILLED BY SIGNAL: 9 (Killed)
===================================================================================

===================================================================================
=   BAD TERMINATION OF ONE OF YOUR APPLICATION PROCESSES
=   RANK 17 PID 20469 RUNNING AT pleiades05.uwp.edu
=   KILLED BY SIGNAL: 9 (Killed)
===================================================================================

===================================================================================
=   BAD TERMINATION OF ONE OF YOUR APPLICATION PROCESSES
=   RANK 18 PID 20470 RUNNING AT pleiades05.uwp.edu
=   KILLED BY SIGNAL: 9 (Killed)
===================================================================================

===================================================================================
=   BAD TERMINATION OF ONE OF YOUR APPLICATION PROCESSES
=   RANK 19 PID 20471 RUNNING AT pleiades05.uwp.edu
=   KILLED BY SIGNAL: 9 (Killed)
===================================================================================

===================================================================================
=   BAD TERMINATION OF ONE OF YOUR APPLICATION PROCESSES
=   RANK 52 PID 20400 RUNNING AT pleiades13.uwp.edu
=   KILLED BY SIGNAL: 9 (Killed)
===================================================================================

===================================================================================
=   BAD TERMINATION OF ONE OF YOUR APPLICATION PROCESSES
=   RANK 53 PID 20401 RUNNING AT pleiades13.uwp.edu
=   KILLED BY SIGNAL: 9 (Killed)
===================================================================================

===================================================================================
=   BAD TERMINATION OF ONE OF YOUR APPLICATION PROCESSES
=   RANK 54 PID 20402 RUNNING AT pleiades13.uwp.edu
=   KILLED BY SIGNAL: 9 (Killed)
===================================================================================

===================================================================================
=   BAD TERMINATION OF ONE OF YOUR APPLICATION PROCESSES
=   RANK 55 PID 20403 RUNNING AT pleiades13.uwp.edu
=   KILLED BY SIGNAL: 9 (Killed)
===================================================================================

===================================================================================
=   BAD TERMINATION OF ONE OF YOUR APPLICATION PROCESSES
=   RANK 8 PID 27267 RUNNING AT pleiades03.uwp.edu
=   KILLED BY SIGNAL: 9 (Killed)
===================================================================================

===================================================================================
=   BAD TERMINATION OF ONE OF YOUR APPLICATION PROCESSES
=   RANK 9 PID 27268 RUNNING AT pleiades03.uwp.edu
=   KILLED BY SIGNAL: 9 (Killed)
===================================================================================

===================================================================================
=   BAD TERMINATION OF ONE OF YOUR APPLICATION PROCESSES
=   RANK 10 PID 27269 RUNNING AT pleiades03.uwp.edu
=   KILLED BY SIGNAL: 9 (Killed)
===================================================================================

===================================================================================
=   BAD TERMINATION OF ONE OF YOUR APPLICATION PROCESSES
=   RANK 11 PID 27270 RUNNING AT pleiades03.uwp.edu
=   KILLED BY SIGNAL: 9 (Killed)
===================================================================================

===================================================================================
=   BAD TERMINATION OF ONE OF YOUR APPLICATION PROCESSES
=   RANK 28 PID 19270 RUNNING AT pleiades08.uwp.edu
=   KILLED BY SIGNAL: 9 (Killed)
===================================================================================

===================================================================================
=   BAD TERMINATION OF ONE OF YOUR APPLICATION PROCESSES
=   RANK 29 PID 19271 RUNNING AT pleiades08.uwp.edu
=   KILLED BY SIGNAL: 9 (Killed)
===================================================================================

===================================================================================
=   BAD TERMINATION OF ONE OF YOUR APPLICATION PROCESSES
=   RANK 30 PID 19272 RUNNING AT pleiades08.uwp.edu
=   KILLED BY SIGNAL: 9 (Killed)
===================================================================================

===================================================================================
=   BAD TERMINATION OF ONE OF YOUR APPLICATION PROCESSES
=   RANK 31 PID 19273 RUNNING AT pleiades08.uwp.edu
=   KILLED BY SIGNAL: 9 (Killed)
===================================================================================

===================================================================================
=   BAD TERMINATION OF ONE OF YOUR APPLICATION PROCESSES
=   RANK 12 PID 25250 RUNNING AT pleiades04.uwp.edu
=   KILLED BY SIGNAL: 9 (Killed)
===================================================================================

===================================================================================
=   BAD TERMINATION OF ONE OF YOUR APPLICATION PROCESSES
=   RANK 13 PID 25251 RUNNING AT pleiades04.uwp.edu
=   KILLED BY SIGNAL: 9 (Killed)
===================================================================================

===================================================================================
=   BAD TERMINATION OF ONE OF YOUR APPLICATION PROCESSES
=   RANK 14 PID 25252 RUNNING AT pleiades04.uwp.edu
=   KILLED BY SIGNAL: 9 (Killed)
===================================================================================

===================================================================================
=   BAD TERMINATION OF ONE OF YOUR APPLICATION PROCESSES
=   RANK 36 PID 5573 RUNNING AT pleiades10.uwp.edu
=   KILLED BY SIGNAL: 9 (Killed)
===================================================================================

===================================================================================
=   BAD TERMINATION OF ONE OF YOUR APPLICATION PROCESSES
=   RANK 37 PID 5574 RUNNING AT pleiades10.uwp.edu
=   KILLED BY SIGNAL: 9 (Killed)
===================================================================================

===================================================================================
=   BAD TERMINATION OF ONE OF YOUR APPLICATION PROCESSES
=   RANK 15 PID 25253 RUNNING AT pleiades04.uwp.edu
=   KILLED BY SIGNAL: 9 (Killed)
===================================================================================

===================================================================================
=   BAD TERMINATION OF ONE OF YOUR APPLICATION PROCESSES
=   RANK 32 PID 5488 RUNNING AT pleiades09.uwp.edu
=   KILLED BY SIGNAL: 9 (Killed)
===================================================================================

===================================================================================
=   BAD TERMINATION OF ONE OF YOUR APPLICATION PROCESSES
=   RANK 33 PID 5489 RUNNING AT pleiades09.uwp.edu
=   KILLED BY SIGNAL: 9 (Killed)
===================================================================================

===================================================================================
=   BAD TERMINATION OF ONE OF YOUR APPLICATION PROCESSES
=   RANK 4 PID 5383 RUNNING AT pleiades02.uwp.edu
=   KILLED BY SIGNAL: 9 (Killed)
===================================================================================

===================================================================================
=   BAD TERMINATION OF ONE OF YOUR APPLICATION PROCESSES
=   RANK 24 PID 20077 RUNNING AT pleiades07.uwp.edu
=   KILLED BY SIGNAL: 9 (Killed)
===================================================================================

===================================================================================
=   BAD TERMINATION OF ONE OF YOUR APPLICATION PROCESSES
=   RANK 25 PID 20078 RUNNING AT pleiades07.uwp.edu
=   KILLED BY SIGNAL: 9 (Killed)
===================================================================================

===================================================================================
=   BAD TERMINATION OF ONE OF YOUR APPLICATION PROCESSES
=   RANK 26 PID 20079 RUNNING AT pleiades07.uwp.edu
=   KILLED BY SIGNAL: 9 (Killed)
===================================================================================

===================================================================================
=   BAD TERMINATION OF ONE OF YOUR APPLICATION PROCESSES
=   RANK 27 PID 20080 RUNNING AT pleiades07.uwp.edu
=   KILLED BY SIGNAL: 9 (Killed)
===================================================================================

===================================================================================
=   BAD TERMINATION OF ONE OF YOUR APPLICATION PROCESSES
=   RANK 38 PID 5575 RUNNING AT pleiades10.uwp.edu
=   KILLED BY SIGNAL: 9 (Killed)
===================================================================================

===================================================================================
=   BAD TERMINATION OF ONE OF YOUR APPLICATION PROCESSES
=   RANK 39 PID 5576 RUNNING AT pleiades10.uwp.edu
=   KILLED BY SIGNAL: 9 (Killed)
===================================================================================

===================================================================================
=   BAD TERMINATION OF ONE OF YOUR APPLICATION PROCESSES
=   RANK 34 PID 5490 RUNNING AT pleiades09.uwp.edu
=   KILLED BY SIGNAL: 9 (Killed)
===================================================================================

===================================================================================
=   BAD TERMINATION OF ONE OF YOUR APPLICATION PROCESSES
=   RANK 35 PID 5491 RUNNING AT pleiades09.uwp.edu
=   KILLED BY SIGNAL: 9 (Killed)
===================================================================================

===================================================================================
=   BAD TERMINATION OF ONE OF YOUR APPLICATION PROCESSES
=   RANK 5 PID 5384 RUNNING AT pleiades02.uwp.edu
=   KILLED BY SIGNAL: 9 (Killed)
===================================================================================

===================================================================================
=   BAD TERMINATION OF ONE OF YOUR APPLICATION PROCESSES
=   RANK 6 PID 5385 RUNNING AT pleiades02.uwp.edu
=   KILLED BY SIGNAL: 9 (Killed)
===================================================================================

===================================================================================
=   BAD TERMINATION OF ONE OF YOUR APPLICATION PROCESSES
=   RANK 7 PID 5386 RUNNING AT pleiades02.uwp.edu
=   KILLED BY SIGNAL: 9 (Killed)
===================================================================================

===================================================================================
=   BAD TERMINATION OF ONE OF YOUR APPLICATION PROCESSES
=   RANK 20 PID 19698 RUNNING AT pleiades06.uwp.edu
=   KILLED BY SIGNAL: 9 (Killed)
===================================================================================

===================================================================================
=   BAD TERMINATION OF ONE OF YOUR APPLICATION PROCESSES
=   RANK 21 PID 19699 RUNNING AT pleiades06.uwp.edu
=   KILLED BY SIGNAL: 9 (Killed)
===================================================================================

===================================================================================
=   BAD TERMINATION OF ONE OF YOUR APPLICATION PROCESSES
=   RANK 22 PID 19700 RUNNING AT pleiades06.uwp.edu
=   KILLED BY SIGNAL: 9 (Killed)
===================================================================================

===================================================================================
=   BAD TERMINATION OF ONE OF YOUR APPLICATION PROCESSES
=   RANK 23 PID 19701 RUNNING AT pleiades06.uwp.edu
=   KILLED BY SIGNAL: 9 (Killed)
===================================================================================
