
     Program PWSCF v.6.4.1 starts on  8Sep2021 at  2:25:26 

     This program is part of the open-source Quantum ESPRESSO suite
     for quantum simulation of materials; please cite
         "P. Giannozzi et al., J. Phys.:Condens. Matter 21 395502 (2009);
         "P. Giannozzi et al., J. Phys.:Condens. Matter 29 465901 (2017);
          URL http://www.quantum-espresso.org", 
     in publications or presentations arising from this work. More details at
     http://www.quantum-espresso.org/quote

     Parallel version (MPI), running on    60 processors

     MPI processes distributed on    15 nodes
     K-points division:     npool     =      15
     R & G space division:  proc/nbgrp/npool/nimage =       4
     Reading input from Si.I4_1amd_3ML.scf.in

     Current dimensions of program PWSCF are:
     Max number of different atomic species (ntypx) = 10
     Max number of k-points (npk) =  40000
     Max angular momentum in pseudopotentials (lmaxx) =  3
               file Si.pbe-nl-kjpaw_psl.1.0.0.UPF: wavefunction(s)  3S 3P renormalized

     Subspace diagonalization in iterative solution of the eigenvalue problem:
     a serial algorithm will be used

 
     Parallelization info
     --------------------
     sticks:   dense  smooth     PW     G-vecs:    dense   smooth      PW
     Min         284     284     85                45994    45994    7327
     Max         285     285     86                46009    46009    7332
     Sum        1137    1137    341               183993   183993   29319
 

     Title: 
     Relaxation of atomic positions for single monolayer slab of Si using PBE   


     bravais-lattice index     =            0
     lattice parameter (alat)  =       9.0599  a.u.
     unit-cell volume          =    4714.8017 (a.u.)^3
     number of atoms/cell      =           24
     number of atomic types    =            1
     number of electrons       =        96.00
     number of Kohn-Sham states=           72
     kinetic-energy cutoff     =      45.0000  Ry
     charge density cutoff     =     175.0000  Ry
     convergence threshold     =      1.0E-08
     mixing beta               =       0.5000
     number of iterations used =            8  local-TF  mixing
     Exchange-correlation      = SLA PW PBX PBC ( 1  4  3  4 0 0)

     celldm(1)=   9.059928  celldm(2)=   0.000000  celldm(3)=   0.000000
     celldm(4)=   0.000000  celldm(5)=   0.000000  celldm(6)=   0.000000

     crystal axes: (cart. coord. in units of alat)
               a(1) = (   1.000000   0.000000   0.000000 )  
               a(2) = (   0.000000   1.000000   0.000000 )  
               a(3) = (   0.000000   0.000000   6.340000 )  

     reciprocal axes: (cart. coord. in units 2 pi/alat)
               b(1) = (  1.000000  0.000000  0.000000 )  
               b(2) = (  0.000000  1.000000  0.000000 )  
               b(3) = (  0.000000  0.000000  0.157729 )  


     PseudoPot. # 1 for Si read from file:
     /share/pseudo/Si.pbe-nl-kjpaw_psl.1.0.0.UPF
     MD5 check sum: 3686bff6734aab787fb18a3c8374d51f
     Pseudo is Projector augmented-wave + core cor, Zval =  4.0
     Generated using "atomic" code by A. Dal Corso v.6.3
     Shape of augmentation charge: PSQ
     Using radial grid of 1141 points,  4 beta functions with: 
                l(1) =   0
                l(2) =   0
                l(3) =   1
                l(4) =   1
     Q(r) pseudized with 0 coefficients 


     atomic species   valence    mass     pseudopotential
        Si             4.00    28.08600     Si( 1.00)

     No symmetry found



   Cartesian axes

     site n.     atom                  positions (alat units)
         1           Si  tau(   1) = (  -0.1683048   0.0000035   1.5587421  )
         2           Si  tau(   2) = (   0.4645445   0.5000141   1.8028482  )
         3           Si  tau(   3) = (  -0.0275842   0.4999956   1.6530484  )
         4           Si  tau(   4) = (   0.4749251   0.0000327   1.9189233  )
         5           Si  tau(   5) = (  -0.0158299  -0.0000089   2.0513061  )
         6           Si  tau(   6) = (   0.4914202   0.5000153   2.3317213  )
         7           Si  tau(   7) = (  -0.0090516   0.4999782   2.1864991  )
         8           Si  tau(   8) = (   0.5037643   0.0000251   2.4655294  )
         9           Si  tau(   9) = (  -0.0011153   0.0000332   2.6319082  )
        10           Si  tau(  10) = (   0.4936920   0.5000074   2.9015222  )
        11           Si  tau(  11) = (  -0.0036873   0.5000055   2.7538139  )
        12           Si  tau(  12) = (   0.4999890   0.0000206   3.0329468  )
        13           Si  tau(  13) = (   0.0000175   0.0000202   3.1699616  )
        14           Si  tau(  14) = (   0.5036870   0.5000059   3.4491684  )
        15           Si  tau(  15) = (   0.0063092   0.5000074   3.3013942  )
        16           Si  tau(  16) = (   0.5011623   0.0000333   3.5708531  )
        17           Si  tau(  17) = (  -0.0037461   0.0000256   3.7374554  )
        18           Si  tau(  18) = (   0.5090368   0.4999799   4.0161765  )
        19           Si  tau(  19) = (   0.0085764   0.5000159   3.8711979  )
        20           Si  tau(  20) = (   0.5159552  -0.0000064   4.1512069  )
        21           Si  tau(  21) = (   0.0252209   0.0000338   4.2840632  )
        22           Si  tau(  22) = (   0.5276255   0.4999976   4.5497431  )
        23           Si  tau(  23) = (   0.0355123   0.5000154   4.3999242  )
        24           Si  tau(  24) = (   0.6681395   0.0000075   4.6438178  )

     number of k points=   113  gaussian smearing, width (Ry)=  0.0100

     Number of k-points >= 100: set verbosity='high' to print them.

     Dense  grid:   183993 G-vectors     FFT dimensions: (  40,  40, 243)

     Estimated max dynamical RAM per process >     122.98 MB

     Estimated total dynamical RAM >       7.21 GB

     Initial potential from superposition of free atoms

     starting charge   95.98658, renormalised to   96.00000

     negative rho (up, down):  1.706E-04 0.000E+00
     Starting wfcs are   96 randomized atomic wfcs
     Checking if some PAW data can be deallocated... 

     total cpu time spent up to now is        8.7 secs

     Self-consistent Calculation

     iteration #  1     ecut=    45.00 Ry     beta= 0.50
     CG style diagonalization
     ethr =  1.00E-02,  avg # of iterations =  3.3

     Threshold (ethr) on eigenvalues was too large:
     Diagonalizing with lowered threshold

     CG style diagonalization
     ethr =  7.57E-04,  avg # of iterations =  2.6

     total cpu time spent up to now is      112.4 secs

     total energy              =   -1120.79080773 Ry
     Harris-Foulkes estimate   =   -1120.83576503 Ry
     estimated scf accuracy    <       0.83194900 Ry

     iteration #  2     ecut=    45.00 Ry     beta= 0.50
     CG style diagonalization
     ethr =  8.67E-04,  avg # of iterations =  3.0

     total cpu time spent up to now is      148.8 secs

     total energy              =   -1120.71338814 Ry
     Harris-Foulkes estimate   =   -1120.81429629 Ry
     estimated scf accuracy    <       0.55269183 Ry

     iteration #  3     ecut=    45.00 Ry     beta= 0.50
     CG style diagonalization
     ethr =  5.76E-04,  avg # of iterations =  3.1

     total cpu time spent up to now is      186.7 secs

     total energy              =   -1120.76455998 Ry
     Harris-Foulkes estimate   =   -1120.77627074 Ry
     estimated scf accuracy    <       0.05440740 Ry

     iteration #  4     ecut=    45.00 Ry     beta= 0.50
     CG style diagonalization
     c_bands:  1 eigenvalues not converged
     c_bands:  1 eigenvalues not converged
     c_bands:  2 eigenvalues not converged
     c_bands:  2 eigenvalues not converged
     c_bands:  1 eigenvalues not converged
     c_bands:  4 eigenvalues not converged
     c_bands:  1 eigenvalues not converged
     ethr =  5.67E-05,  avg # of iterations =  4.5

     total cpu time spent up to now is      256.6 secs

     total energy              =   -1120.77090996 Ry
     Harris-Foulkes estimate   =   -1120.77465482 Ry
     estimated scf accuracy    <       0.03207736 Ry

     iteration #  5     ecut=    45.00 Ry     beta= 0.50
     CG style diagonalization
     c_bands:  1 eigenvalues not converged
     ethr =  3.34E-05,  avg # of iterations =  3.2

     total cpu time spent up to now is      299.8 secs

     total energy              =   -1120.76963375 Ry
     Harris-Foulkes estimate   =   -1120.77205505 Ry
     estimated scf accuracy    <       0.02320812 Ry

     iteration #  6     ecut=    45.00 Ry     beta= 0.50
     CG style diagonalization
     c_bands:  1 eigenvalues not converged
     ethr =  2.42E-05,  avg # of iterations =  3.1

     negative rho (up, down):  2.175E-05 0.000E+00

     total cpu time spent up to now is      340.9 secs

     total energy              =   -1120.76789413 Ry
     Harris-Foulkes estimate   =   -1120.77007512 Ry
     estimated scf accuracy    <       0.01091103 Ry

     iteration #  7     ecut=    45.00 Ry     beta= 0.50
     CG style diagonalization
     c_bands:  1 eigenvalues not converged
     c_bands:  1 eigenvalues not converged
     ethr =  1.14E-05,  avg # of iterations =  3.4

     negative rho (up, down):  6.626E-03 0.000E+00

     total cpu time spent up to now is      387.9 secs

     total energy              =   -1120.76803113 Ry
     Harris-Foulkes estimate   =   -1120.76852624 Ry
     estimated scf accuracy    <       0.00275462 Ry

     iteration #  8     ecut=    45.00 Ry     beta= 0.50
     CG style diagonalization
     c_bands:  1 eigenvalues not converged
     c_bands:  2 eigenvalues not converged
     c_bands:  1 eigenvalues not converged
     c_bands:  1 eigenvalues not converged
     c_bands:  2 eigenvalues not converged
     ethr =  2.87E-06,  avg # of iterations =  4.6

     negative rho (up, down):  8.758E-03 0.000E+00

     total cpu time spent up to now is      455.5 secs

     total energy              =   -1120.76788043 Ry
     Harris-Foulkes estimate   =   -1120.76859538 Ry
     estimated scf accuracy    <       0.00305899 Ry

     iteration #  9     ecut=    45.00 Ry     beta= 0.50
     CG style diagonalization
     c_bands:  1 eigenvalues not converged
     c_bands:  1 eigenvalues not converged
     ethr =  2.87E-06,  avg # of iterations =  3.3

     negative rho (up, down):  8.632E-03 0.000E+00

     total cpu time spent up to now is      500.9 secs

     total energy              =   -1120.76830025 Ry
     Harris-Foulkes estimate   =   -1120.76838287 Ry
     estimated scf accuracy    <       0.00088770 Ry

     iteration # 10     ecut=    45.00 Ry     beta= 0.50
     CG style diagonalization
     ethr =  9.25E-07,  avg # of iterations =  3.2

     negative rho (up, down):  4.977E-04 0.000E+00

     total cpu time spent up to now is      546.5 secs

     total energy              =   -1120.76826289 Ry
     Harris-Foulkes estimate   =   -1120.76833819 Ry
     estimated scf accuracy    <       0.00029367 Ry

     iteration # 11     ecut=    45.00 Ry     beta= 0.50
     CG style diagonalization
     c_bands:  1 eigenvalues not converged
     ethr =  3.06E-07,  avg # of iterations =  3.3

     negative rho (up, down):  2.613E-04 0.000E+00

     total cpu time spent up to now is      594.1 secs

     total energy              =   -1120.76829661 Ry
     Harris-Foulkes estimate   =   -1120.76829705 Ry
     estimated scf accuracy    <       0.00001051 Ry

     iteration # 12     ecut=    45.00 Ry     beta= 0.50
     CG style diagonalization
     ethr =  1.10E-08,  avg # of iterations =  4.3

     negative rho (up, down):  1.014E-04 0.000E+00

     total cpu time spent up to now is      654.9 secs

     total energy              =   -1120.76830369 Ry
     Harris-Foulkes estimate   =   -1120.76830535 Ry
     estimated scf accuracy    <       0.00001470 Ry

     iteration # 13     ecut=    45.00 Ry     beta= 0.50
     CG style diagonalization
     ethr =  1.10E-08,  avg # of iterations =  3.2

     negative rho (up, down):  6.719E-05 0.000E+00

     total cpu time spent up to now is      703.4 secs

     total energy              =   -1120.76830577 Ry
     Harris-Foulkes estimate   =   -1120.76830583 Ry
     estimated scf accuracy    <       0.00000023 Ry

     iteration # 14     ecut=    45.00 Ry     beta= 0.50
     CG style diagonalization
     ethr =  2.43E-10,  avg # of iterations =  4.1

     negative rho (up, down):  6.155E-05 0.000E+00

     total cpu time spent up to now is      778.3 secs

     total energy              =   -1120.76830589 Ry
     Harris-Foulkes estimate   =   -1120.76830595 Ry
     estimated scf accuracy    <       0.00000041 Ry

     iteration # 15     ecut=    45.00 Ry     beta= 0.50
     CG style diagonalization
     ethr =  2.43E-10,  avg # of iterations =  3.1

     negative rho (up, down):  6.674E-05 0.000E+00

     total cpu time spent up to now is      832.1 secs

     total energy              =   -1120.76830593 Ry
     Harris-Foulkes estimate   =   -1120.76830593 Ry
     estimated scf accuracy    <       0.00000002 Ry

     iteration # 16     ecut=    45.00 Ry     beta= 0.50
     CG style diagonalization
     ethr =  2.50E-11,  avg # of iterations =  4.0

     negative rho (up, down):  6.621E-05 0.000E+00

     total cpu time spent up to now is      902.3 secs

     total energy              =   -1120.76830594 Ry
     Harris-Foulkes estimate   =   -1120.76830595 Ry
     estimated scf accuracy    <       0.00000004 Ry

     iteration # 17     ecut=    45.00 Ry     beta= 0.50
     CG style diagonalization
     ethr =  2.50E-11,  avg # of iterations =  3.0

     negative rho (up, down):  6.755E-05 0.000E+00

     total cpu time spent up to now is      956.3 secs

     total energy              =   -1120.76830594 Ry
     Harris-Foulkes estimate   =   -1120.76830594 Ry
     estimated scf accuracy    <       0.00000001 Ry

     iteration # 18     ecut=    45.00 Ry     beta= 0.50
     CG style diagonalization
     ethr =  1.16E-11,  avg # of iterations =  3.5

     negative rho (up, down):  6.362E-05 0.000E+00

     total cpu time spent up to now is     1011.5 secs

     End of self-consistent calculation

     Number of k-points >= 100: set verbosity='high' to print the bands.

     the Fermi energy is     2.9764 ev

!    total energy              =   -1120.76830594 Ry
     Harris-Foulkes estimate   =   -1120.76830594 Ry
     estimated scf accuracy    <          7.7E-09 Ry

     total all-electron energy =    -13921.069065 Ry

     The total energy is the sum of the following terms:

     one-electron contribution =   -2953.22598407 Ry
     hartree contribution      =    1511.92243400 Ry
     xc contribution           =    -118.33142151 Ry
     ewald contribution        =    1322.28669985 Ry
     one-center paw contrib.   =    -883.41453181 Ry
     smearing contrib. (-TS)   =      -0.00550239 Ry

     convergence has been achieved in  18 iterations

     negative rho (up, down):  6.362E-05 0.000E+00

     Forces acting on atoms (cartesian axes, Ry/au):

     atom    1 type  1   force =     0.00005650   -0.00000807    0.00001122
     atom    2 type  1   force =    -0.00001696    0.00001738    0.00006573
     atom    3 type  1   force =    -0.00008091    0.00001081   -0.00001077
     atom    4 type  1   force =     0.00004243   -0.00002733    0.00006223
     atom    5 type  1   force =    -0.00006317   -0.00001272   -0.00003859
     atom    6 type  1   force =    -0.00002439    0.00001106   -0.00003229
     atom    7 type  1   force =    -0.00006858    0.00003053   -0.00001727
     atom    8 type  1   force =     0.00004526   -0.00001721   -0.00007021
     atom    9 type  1   force =     0.00002024   -0.00004186   -0.00001453
     atom   10 type  1   force =     0.00011320    0.00001824   -0.00001675
     atom   11 type  1   force =     0.00007124    0.00003616   -0.00015364
     atom   12 type  1   force =    -0.00001465   -0.00001687   -0.00000175
     atom   13 type  1   force =     0.00001804   -0.00001627   -0.00001552
     atom   14 type  1   force =    -0.00006759    0.00003580    0.00016205
     atom   15 type  1   force =    -0.00011184    0.00001787    0.00003318
     atom   16 type  1   force =    -0.00002658   -0.00004140   -0.00001094
     atom   17 type  1   force =    -0.00004859   -0.00001708    0.00004888
     atom   18 type  1   force =     0.00007203    0.00003080    0.00001739
     atom   19 type  1   force =     0.00002623    0.00001112    0.00004078
     atom   20 type  1   force =     0.00005217   -0.00001334    0.00004784
     atom   21 type  1   force =    -0.00004606   -0.00002746   -0.00006621
     atom   22 type  1   force =     0.00007984    0.00001242    0.00000798
     atom   23 type  1   force =     0.00001347    0.00001764   -0.00005436
     atom   24 type  1   force =    -0.00004133   -0.00001022    0.00000553

     Total force =     0.000420     Total SCF correction =     0.000182
     SCF correction compared to forces is large: reduce conv_thr to get better values


     Computing stress (Cartesian axis) and pressure


     negative rho (up, down):  6.362E-05 0.000E+00
          total   stress  (Ry/bohr**3)                   (kbar)     P=    0.30
  -0.00000794  -0.00000000   0.00000004         -1.17     -0.00      0.01
  -0.00000000   0.00001565  -0.00000000         -0.00      2.30     -0.00
   0.00000004  -0.00000000  -0.00000154          0.01     -0.00     -0.23


     Writing output data file Si.I4_1amd_3ML.save/
 
     init_run     :      6.54s CPU      7.51s WALL (       1 calls)
     electrons    :    921.52s CPU   1003.32s WALL (       1 calls)
     forces       :      1.50s CPU      1.68s WALL (       1 calls)
     stress       :     10.55s CPU     11.92s WALL (       1 calls)

     Called by init_run:
     wfcinit      :      5.18s CPU      5.35s WALL (       1 calls)
     potinit      :      0.64s CPU      0.98s WALL (       1 calls)
     hinit0       :      0.25s CPU      0.25s WALL (       1 calls)

     Called by electrons:
     c_bands      :    819.06s CPU    884.91s WALL (      19 calls)
     sum_band     :     42.24s CPU     48.68s WALL (      19 calls)
     v_of_rho     :      1.51s CPU      1.55s WALL (      19 calls)
     newd         :      0.22s CPU      0.28s WALL (      19 calls)
     PAW_pot      :      4.38s CPU      6.74s WALL (      19 calls)
     mix_rho      :     48.03s CPU     48.34s WALL (      19 calls)

     Called by c_bands:
     init_us_2    :      2.46s CPU      2.44s WALL (     328 calls)
     ccgdiagg     :    694.77s CPU    699.54s WALL (     152 calls)
     wfcrot       :     68.29s CPU     69.23s WALL (     144 calls)

     Called by sum_band:
     sum_band:bec :      0.01s CPU      0.01s WALL (     152 calls)
     addusdens    :      1.18s CPU      2.25s WALL (      19 calls)

     Called by *cgdiagg:
     h_psi        :    411.45s CPU    414.77s WALL (   28331 calls)
     s_psi        :    194.05s CPU    195.20s WALL (   56518 calls)
     cdiaghg      :      0.22s CPU      0.20s WALL (     144 calls)

     Called by h_psi:
     h_psi:pot    :    409.79s CPU    412.97s WALL (   28331 calls)
     h_psi:calbec :    104.47s CPU    105.28s WALL (   28331 calls)
     vloc_psi     :    205.79s CPU    208.16s WALL (   28331 calls)
     add_vuspsi   :     99.20s CPU     99.34s WALL (   28331 calls)
     hs_1psi      :    447.30s CPU    450.03s WALL (   28187 calls)
     s_1psi       :    193.56s CPU    195.05s WALL (   28187 calls)

     General routines
     calbec       :    204.96s CPU    206.92s WALL (   56710 calls)
     fft          :      1.25s CPU      1.39s WALL (     235 calls)
     ffts         :     24.23s CPU     24.41s WALL (    4820 calls)
     fftw         :    184.83s CPU    188.80s WALL (   88438 calls)
 
     Parallel routines
     fft_scatt_xy :     42.60s CPU     43.52s WALL (   93493 calls)
     fft_scatt_yz :     48.77s CPU     50.39s WALL (   93493 calls)
 
     PWSCF        :  15m41.01s CPU  21m52.09s WALL

 
   This run was terminated on:   2:47:19   8Sep2021            

=------------------------------------------------------------------------------=
   JOB DONE.
=------------------------------------------------------------------------------=
Note: The following floating-point exceptions are signalling:Note: The following floating-point exceptions are signalling: IEEE_UNDERFLOW_FLAG IEEE_DENORMAL
Note: The following floating-point exceptions are signalling: IEEE_UNDERFLOW_FLAG IEEE_DENORMAL
 IEEE_UNDERFLOW_FLAG IEEE_DENORMAL
Note: The following floating-point exceptions are signalling: IEEE_UNDERFLOW_FLAG IEEE_DENORMAL
