
     Program PWSCF v.6.4.1 starts on  8Sep2021 at 11:33: 9 

     This program is part of the open-source Quantum ESPRESSO suite
     for quantum simulation of materials; please cite
         "P. Giannozzi et al., J. Phys.:Condens. Matter 21 395502 (2009);
         "P. Giannozzi et al., J. Phys.:Condens. Matter 29 465901 (2017);
          URL http://www.quantum-espresso.org", 
     in publications or presentations arising from this work. More details at
     http://www.quantum-espresso.org/quote

     Parallel version (MPI), running on    60 processors

     MPI processes distributed on    15 nodes
     K-points division:     npool     =      15
     R & G space division:  proc/nbgrp/npool/nimage =       4
     Reading input from Si.I4_1amd_4ML.scf.in

     Current dimensions of program PWSCF are:
     Max number of different atomic species (ntypx) = 10
     Max number of k-points (npk) =  40000
     Max angular momentum in pseudopotentials (lmaxx) =  3
               file Si.pbe-nl-kjpaw_psl.1.0.0.UPF: wavefunction(s)  3S 3P renormalized

     Subspace diagonalization in iterative solution of the eigenvalue problem:
     a serial algorithm will be used

 
     Parallelization info
     --------------------
     sticks:   dense  smooth     PW     G-vecs:    dense   smooth      PW
     Min         284     284     85                54180    54180    8643
     Max         285     285     86                54197    54197    8650
     Sum        1137    1137    341               216741   216741   34583
 

     Title: 
     Relaxation of atomic positions for single monolayer slab of Si using PBE   


     bravais-lattice index     =            0
     lattice parameter (alat)  =       9.0599  a.u.
     unit-cell volume          =    5547.7004 (a.u.)^3
     number of atoms/cell      =           32
     number of atomic types    =            1
     number of electrons       =       128.00
     number of Kohn-Sham states=           96
     kinetic-energy cutoff     =      45.0000  Ry
     charge density cutoff     =     175.0000  Ry
     convergence threshold     =      1.0E-08
     mixing beta               =       0.5000
     number of iterations used =            8  local-TF  mixing
     Exchange-correlation      = SLA PW PBX PBC ( 1  4  3  4 0 0)

     celldm(1)=   9.059928  celldm(2)=   0.000000  celldm(3)=   0.000000
     celldm(4)=   0.000000  celldm(5)=   0.000000  celldm(6)=   0.000000

     crystal axes: (cart. coord. in units of alat)
               a(1) = (   1.000000   0.000000   0.000000 )  
               a(2) = (   0.000000   1.000000   0.000000 )  
               a(3) = (   0.000000   0.000000   7.460000 )  

     reciprocal axes: (cart. coord. in units 2 pi/alat)
               b(1) = (  1.000000  0.000000  0.000000 )  
               b(2) = (  0.000000  1.000000  0.000000 )  
               b(3) = (  0.000000  0.000000  0.134048 )  


     PseudoPot. # 1 for Si read from file:
     /share/pseudo/Si.pbe-nl-kjpaw_psl.1.0.0.UPF
     MD5 check sum: 3686bff6734aab787fb18a3c8374d51f
     Pseudo is Projector augmented-wave + core cor, Zval =  4.0
     Generated using "atomic" code by A. Dal Corso v.6.3
     Shape of augmentation charge: PSQ
     Using radial grid of 1141 points,  4 beta functions with: 
                l(1) =   0
                l(2) =   0
                l(3) =   1
                l(4) =   1
     Q(r) pseudized with 0 coefficients 


     atomic species   valence    mass     pseudopotential
        Si             4.00    28.08600     Si( 1.00)

     No symmetry found



   Cartesian axes

     site n.     atom                  positions (alat units)
         1           Si  tau(   1) = (  -0.1541291   0.0000110   1.5548730  )
         2           Si  tau(   2) = (   0.4780148   0.5000109   1.8025294  )
         3           Si  tau(   3) = (  -0.0140282   0.5000093   1.6496809  )
         4           Si  tau(   4) = (   0.4890182   0.0000105   1.9160451  )
         5           Si  tau(   5) = (  -0.0027982   0.0000107   2.0485685  )
         6           Si  tau(   6) = (   0.5014189   0.5000098   2.3304784  )
         7           Si  tau(   7) = (   0.0007841   0.5000105   2.1872390  )
         8           Si  tau(   8) = (   0.5108927   0.0000122   2.4685785  )
         9           Si  tau(   9) = (   0.0058361   0.0000106   2.6326858  )
        10           Si  tau(  10) = (   0.5027203   0.5000106   2.8993369  )
        11           Si  tau(  11) = (   0.0029026   0.5000117   2.7495578  )
        12           Si  tau(  12) = (   0.5020445   0.0000111   3.0322747  )
        13           Si  tau(  13) = (   0.0014077   0.0000104   3.1670425  )
        14           Si  tau(  14) = (   0.5023525   0.5000107   3.4504446  )
        15           Si  tau(  15) = (   0.0031251   0.5000109   3.3112538  )
        16           Si  tau(  16) = (   0.4997937   0.0000105   3.5836574  )
        17           Si  tau(  17) = (   0.0000515   0.0000105   3.7332699  )
        18           Si  tau(  18) = (   0.4967596   0.5000110   4.0054346  )
        19           Si  tau(  19) = (  -0.0024760   0.5000107   3.8664600  )
        20           Si  tau(  20) = (   0.4985232   0.0000105   4.1498301  )
        21           Si  tau(  21) = (  -0.0021053   0.0000111   4.2846147  )
        22           Si  tau(  22) = (   0.4970862   0.5000118   4.5672938  )
        23           Si  tau(  23) = (  -0.0027404   0.5000109   4.4173801  )
        24           Si  tau(  24) = (   0.4942231   0.0000107   4.6840436  )
        25           Si  tau(  25) = (  -0.0108443   0.0000122   4.8483277  )
        26           Si  tau(  26) = (   0.4993401   0.5000106   5.1294828  )
        27           Si  tau(  27) = (  -0.0013119   0.5000101   4.9862100  )
        28           Si  tau(  28) = (   0.5028781   0.0000109   5.2683541  )
        29           Si  tau(  29) = (   0.0110514   0.0000107   5.4007290  )
        30           Si  tau(  30) = (   0.5141673   0.5000095   5.6669211  )
        31           Si  tau(  31) = (   0.0221177   0.5000110   5.5140830  )
        32           Si  tau(  32) = (   0.6542687   0.0000111   5.7619866  )

     number of k points=   113  gaussian smearing, width (Ry)=  0.0100

     Number of k-points >= 100: set verbosity='high' to print them.

     Dense  grid:   216741 G-vectors     FFT dimensions: (  40,  40, 288)

     Estimated max dynamical RAM per process >     179.69 MB

     Estimated total dynamical RAM >      10.53 GB

     Initial potential from superposition of free atoms

     starting charge  127.98210, renormalised to  128.00000

     negative rho (up, down):  1.682E-04 0.000E+00
     Starting wfcs are  128 randomized atomic wfcs
     Checking if some PAW data can be deallocated... 

     total cpu time spent up to now is       12.9 secs

     Self-consistent Calculation

     iteration #  1     ecut=    45.00 Ry     beta= 0.50
     CG style diagonalization
     ethr =  1.00E-02,  avg # of iterations =  3.3

     Threshold (ethr) on eigenvalues was too large:
     Diagonalizing with lowered threshold

     CG style diagonalization
     ethr =  7.28E-04,  avg # of iterations =  2.6

     total cpu time spent up to now is      215.5 secs

     total energy              =   -1494.42714436 Ry
     Harris-Foulkes estimate   =   -1494.47304901 Ry
     estimated scf accuracy    <       1.06034811 Ry

     iteration #  2     ecut=    45.00 Ry     beta= 0.50
     CG style diagonalization
     ethr =  8.28E-04,  avg # of iterations =  3.0

     total cpu time spent up to now is      286.8 secs

     total energy              =   -1494.35401075 Ry
     Harris-Foulkes estimate   =   -1494.45788754 Ry
     estimated scf accuracy    <       0.72270948 Ry

     iteration #  3     ecut=    45.00 Ry     beta= 0.50
     CG style diagonalization
     ethr =  5.65E-04,  avg # of iterations =  3.0

     total cpu time spent up to now is      358.6 secs

     total energy              =   -1494.40733339 Ry
     Harris-Foulkes estimate   =   -1494.41917160 Ry
     estimated scf accuracy    <       0.06019723 Ry

     iteration #  4     ecut=    45.00 Ry     beta= 0.50
     CG style diagonalization
     c_bands:  4 eigenvalues not converged
     c_bands:  2 eigenvalues not converged
     c_bands:  4 eigenvalues not converged
     c_bands:  5 eigenvalues not converged
     c_bands:  4 eigenvalues not converged
     c_bands:  2 eigenvalues not converged
     c_bands:  3 eigenvalues not converged
     c_bands:  1 eigenvalues not converged
     ethr =  4.70E-05,  avg # of iterations =  4.9

     total cpu time spent up to now is      552.7 secs

     total energy              =   -1494.41509868 Ry
     Harris-Foulkes estimate   =   -1494.41822231 Ry
     estimated scf accuracy    <       0.04133374 Ry

     iteration #  5     ecut=    45.00 Ry     beta= 0.50
     CG style diagonalization
     c_bands:  2 eigenvalues not converged
     c_bands:  1 eigenvalues not converged
     ethr =  3.23E-05,  avg # of iterations =  3.1

     total cpu time spent up to now is      633.7 secs

     total energy              =   -1494.41318136 Ry
     Harris-Foulkes estimate   =   -1494.41619179 Ry
     estimated scf accuracy    <       0.03225310 Ry

     iteration #  6     ecut=    45.00 Ry     beta= 0.50
     CG style diagonalization
     c_bands:  1 eigenvalues not converged
     ethr =  2.52E-05,  avg # of iterations =  3.1

     negative rho (up, down):  3.099E-05 0.000E+00

     total cpu time spent up to now is      708.5 secs

     total energy              =   -1494.41140819 Ry
     Harris-Foulkes estimate   =   -1494.41373574 Ry
     estimated scf accuracy    <       0.01319665 Ry

     iteration #  7     ecut=    45.00 Ry     beta= 0.50
     CG style diagonalization
     ethr =  1.03E-05,  avg # of iterations =  3.4

     negative rho (up, down):  5.542E-03 0.000E+00

     total cpu time spent up to now is      798.6 secs

     total energy              =   -1494.41152649 Ry
     Harris-Foulkes estimate   =   -1494.41208964 Ry
     estimated scf accuracy    <       0.00298758 Ry

     iteration #  8     ecut=    45.00 Ry     beta= 0.50
     CG style diagonalization
     c_bands:  2 eigenvalues not converged
     c_bands:  1 eigenvalues not converged
     c_bands:  1 eigenvalues not converged
     c_bands:  2 eigenvalues not converged
     c_bands:  1 eigenvalues not converged
     c_bands:  1 eigenvalues not converged
     ethr =  2.33E-06,  avg # of iterations =  4.6

     negative rho (up, down):  8.709E-03 0.000E+00

     total cpu time spent up to now is      928.3 secs

     total energy              =   -1494.41147020 Ry
     Harris-Foulkes estimate   =   -1494.41207466 Ry
     estimated scf accuracy    <       0.00310859 Ry

     iteration #  9     ecut=    45.00 Ry     beta= 0.50
     CG style diagonalization
     c_bands:  1 eigenvalues not converged
     c_bands:  1 eigenvalues not converged
     ethr =  2.33E-06,  avg # of iterations =  3.3

     negative rho (up, down):  9.435E-03 0.000E+00

     total cpu time spent up to now is     1011.9 secs

     total energy              =   -1494.41182902 Ry
     Harris-Foulkes estimate   =   -1494.41194071 Ry
     estimated scf accuracy    <       0.00129525 Ry

     iteration # 10     ecut=    45.00 Ry     beta= 0.50
     CG style diagonalization
     c_bands:  1 eigenvalues not converged
     c_bands:  2 eigenvalues not converged
     c_bands:  1 eigenvalues not converged
     ethr =  1.01E-06,  avg # of iterations =  3.2

     negative rho (up, down):  5.641E-04 0.000E+00

     total cpu time spent up to now is     1092.3 secs

     total energy              =   -1494.41180393 Ry
     Harris-Foulkes estimate   =   -1494.41187770 Ry
     estimated scf accuracy    <       0.00030487 Ry

     iteration # 11     ecut=    45.00 Ry     beta= 0.50
     CG style diagonalization
     c_bands:  1 eigenvalues not converged
     c_bands:  1 eigenvalues not converged
     ethr =  2.38E-07,  avg # of iterations =  3.3

     negative rho (up, down):  2.572E-04 0.000E+00

     total cpu time spent up to now is     1181.7 secs

     total energy              =   -1494.41184114 Ry
     Harris-Foulkes estimate   =   -1494.41183837 Ry
     estimated scf accuracy    <       0.00001764 Ry

     iteration # 12     ecut=    45.00 Ry     beta= 0.50
     CG style diagonalization
     ethr =  1.38E-08,  avg # of iterations =  4.0

     negative rho (up, down):  1.081E-04 0.000E+00

     total cpu time spent up to now is     1290.2 secs

     total energy              =   -1494.41184957 Ry
     Harris-Foulkes estimate   =   -1494.41185028 Ry
     estimated scf accuracy    <       0.00001614 Ry

     iteration # 13     ecut=    45.00 Ry     beta= 0.50
     CG style diagonalization
     ethr =  1.26E-08,  avg # of iterations =  3.1

     negative rho (up, down):  6.890E-05 0.000E+00

     total cpu time spent up to now is     1372.6 secs

     total energy              =   -1494.41185178 Ry
     Harris-Foulkes estimate   =   -1494.41185182 Ry
     estimated scf accuracy    <       0.00000024 Ry

     iteration # 14     ecut=    45.00 Ry     beta= 0.50
     CG style diagonalization
     ethr =  1.88E-10,  avg # of iterations =  4.3

     negative rho (up, down):  6.105E-05 0.000E+00

     total cpu time spent up to now is     1488.7 secs

     total energy              =   -1494.41185202 Ry
     Harris-Foulkes estimate   =   -1494.41185205 Ry
     estimated scf accuracy    <       0.00000044 Ry

     iteration # 15     ecut=    45.00 Ry     beta= 0.50
     CG style diagonalization
     ethr =  1.88E-10,  avg # of iterations =  3.1

     negative rho (up, down):  6.558E-05 0.000E+00

     total cpu time spent up to now is     1569.8 secs

     total energy              =   -1494.41185207 Ry
     Harris-Foulkes estimate   =   -1494.41185205 Ry
     estimated scf accuracy    <       0.00000003 Ry

     iteration # 16     ecut=    45.00 Ry     beta= 0.50
     CG style diagonalization
     ethr =  2.57E-11,  avg # of iterations =  3.8

     negative rho (up, down):  6.498E-05 0.000E+00

     total cpu time spent up to now is     1671.2 secs

     total energy              =   -1494.41185208 Ry
     Harris-Foulkes estimate   =   -1494.41185208 Ry
     estimated scf accuracy    <       0.00000002 Ry

     iteration # 17     ecut=    45.00 Ry     beta= 0.50
     CG style diagonalization
     ethr =  1.92E-11,  avg # of iterations =  3.0

     negative rho (up, down):  6.206E-05 0.000E+00

     total cpu time spent up to now is     1743.5 secs

     End of self-consistent calculation

     Number of k-points >= 100: set verbosity='high' to print the bands.

     the Fermi energy is     3.9347 ev

!    total energy              =   -1494.41185208 Ry
     Harris-Foulkes estimate   =   -1494.41185208 Ry
     estimated scf accuracy    <          7.2E-09 Ry

     total all-electron energy =    -18561.479531 Ry

     The total energy is the sum of the following terms:

     one-electron contribution =   -4472.89018811 Ry
     hartree contribution      =    2288.07832282 Ry
     xc contribution           =    -157.86952547 Ry
     ewald contribution        =    2026.15406550 Ry
     one-center paw contrib.   =   -1177.87608251 Ry
     smearing contrib. (-TS)   =      -0.00844430 Ry

     convergence has been achieved in  17 iterations

     negative rho (up, down):  6.206E-05 0.000E+00

     Forces acting on atoms (cartesian axes, Ry/au):

     atom    1 type  1   force =    -0.00000441   -0.00000143   -0.00001114
     atom    2 type  1   force =     0.00000394   -0.00000047   -0.00001276
     atom    3 type  1   force =     0.00000546    0.00000162   -0.00001385
     atom    4 type  1   force =    -0.00000499    0.00000027   -0.00000296
     atom    5 type  1   force =    -0.00000711   -0.00000025    0.00000017
     atom    6 type  1   force =    -0.00000390    0.00000258   -0.00000131
     atom    7 type  1   force =    -0.00000581    0.00000033    0.00000399
     atom    8 type  1   force =    -0.00000872   -0.00000289    0.00001141
     atom    9 type  1   force =    -0.00000649    0.00000125    0.00000256
     atom   10 type  1   force =    -0.00000467    0.00000056    0.00000621
     atom   11 type  1   force =    -0.00000672   -0.00000138    0.00000357
     atom   12 type  1   force =     0.00000086   -0.00000049   -0.00001177
     atom   13 type  1   force =     0.00000023    0.00000069    0.00000161
     atom   14 type  1   force =     0.00000744   -0.00000018    0.00000421
     atom   15 type  1   force =     0.00000606   -0.00000058    0.00001011
     atom   16 type  1   force =     0.00000943    0.00000034    0.00000880
     atom   17 type  1   force =     0.00000904    0.00000026    0.00000222
     atom   18 type  1   force =     0.00000660   -0.00000058    0.00000203
     atom   19 type  1   force =     0.00000684   -0.00000015    0.00000329
     atom   20 type  1   force =     0.00000496    0.00000068    0.00000055
     atom   21 type  1   force =     0.00000272   -0.00000018    0.00001814
     atom   22 type  1   force =     0.00000214   -0.00000136    0.00000153
     atom   23 type  1   force =     0.00000072    0.00000028   -0.00000084
     atom   24 type  1   force =    -0.00000296    0.00000122    0.00000191
     atom   25 type  1   force =    -0.00000309   -0.00000265   -0.00000218
     atom   26 type  1   force =    -0.00000327    0.00000045   -0.00000641
     atom   27 type  1   force =    -0.00000437    0.00000234   -0.00000328
     atom   28 type  1   force =    -0.00000475   -0.00000037   -0.00001633
     atom   29 type  1   force =     0.00000963    0.00000018   -0.00001330
     atom   30 type  1   force =    -0.00000557    0.00000155    0.00000808
     atom   31 type  1   force =    -0.00000148   -0.00000033    0.00000764
     atom   32 type  1   force =     0.00000225   -0.00000134   -0.00000187

     Total force =     0.000055     Total SCF correction =     0.000151
     SCF correction compared to forces is large: reduce conv_thr to get better values


     Computing stress (Cartesian axis) and pressure


     negative rho (up, down):  6.206E-05 0.000E+00
          total   stress  (Ry/bohr**3)                   (kbar)     P=   -0.72
  -0.00001316   0.00000000   0.00000023         -1.94      0.00      0.03
   0.00000000  -0.00000006  -0.00000000          0.00     -0.01     -0.00
   0.00000023  -0.00000000  -0.00000155          0.03     -0.00     -0.23


     Writing output data file Si.I4_1amd_4ML.save/
 
     init_run     :     10.15s CPU     11.70s WALL (       1 calls)
     electrons    :   1608.38s CPU   1731.19s WALL (       1 calls)
     forces       :      2.34s CPU      2.49s WALL (       1 calls)
     stress       :     20.53s CPU     22.48s WALL (       1 calls)

     Called by init_run:
     wfcinit      :      8.21s CPU      8.43s WALL (       1 calls)
     potinit      :      0.71s CPU      1.15s WALL (       1 calls)
     hinit0       :      0.28s CPU      0.29s WALL (       1 calls)

     Called by electrons:
     c_bands      :   1477.36s CPU   1583.71s WALL (      18 calls)
     sum_band     :     66.25s CPU     74.88s WALL (      18 calls)
     v_of_rho     :      1.86s CPU      1.91s WALL (      18 calls)
     newd         :      0.25s CPU      0.30s WALL (      18 calls)
     PAW_pot      :      3.42s CPU      6.50s WALL (      18 calls)
     mix_rho      :     55.81s CPU     56.11s WALL (      18 calls)

     Called by c_bands:
     init_us_2    :      4.16s CPU      4.20s WALL (     312 calls)
     ccgdiagg     :   1290.38s CPU   1310.14s WALL (     145 calls)
     wfcrot       :    101.54s CPU    102.71s WALL (     137 calls)

     Called by sum_band:
     sum_band:bec :      0.03s CPU      0.02s WALL (     144 calls)
     addusdens    :      1.35s CPU      2.74s WALL (      18 calls)

     Called by *cgdiagg:
     h_psi        :    702.39s CPU    710.78s WALL (   35830 calls)
     s_psi        :    360.94s CPU    362.99s WALL (   71523 calls)
     cdiaghg      :      0.36s CPU      0.35s WALL (     137 calls)

     Called by h_psi:
     h_psi:pot    :    699.76s CPU    707.86s WALL (   35830 calls)
     h_psi:calbec :    201.86s CPU    205.60s WALL (   35830 calls)
     vloc_psi     :    314.32s CPU    318.26s WALL (   35830 calls)
     add_vuspsi   :    183.06s CPU    183.65s WALL (   35830 calls)
     hs_1psi      :    793.68s CPU    801.66s WALL (   35693 calls)
     s_1psi       :    364.73s CPU    372.21s WALL (   35693 calls)

     General routines
     calbec       :    393.58s CPU    404.10s WALL (   71707 calls)
     fft          :      1.60s CPU      1.70s WALL (     224 calls)
     ffts         :     28.71s CPU     29.44s WALL (    4338 calls)
     fftw         :    285.06s CPU    288.47s WALL (  112026 calls)
 
     Parallel routines
     fft_scatt_xy :     64.79s CPU     65.14s WALL (  116588 calls)
     fft_scatt_yz :     81.28s CPU     82.51s WALL (  116588 calls)
 
     PWSCF        :  27m22.38s CPU  36m37.57s WALL

 
   This run was terminated on:  12: 9:46   8Sep2021            

=------------------------------------------------------------------------------=
   JOB DONE.
=------------------------------------------------------------------------------=
Note: The following floating-point exceptions are signalling: IEEE_UNDERFLOW_FLAG IEEE_DENORMAL
Note: The following floating-point exceptions are signalling:Note: The following floating-point exceptions are signalling: IEEE_UNDERFLOW_FLAG IEEE_DENORMAL
 IEEE_UNDERFLOW_FLAG IEEE_DENORMAL
Note: The following floating-point exceptions are signalling: IEEE_UNDERFLOW_FLAG IEEE_DENORMAL
