
     Program PWSCF v.6.4.1 starts on  7Sep2021 at 17:36:47 

     This program is part of the open-source Quantum ESPRESSO suite
     for quantum simulation of materials; please cite
         "P. Giannozzi et al., J. Phys.:Condens. Matter 21 395502 (2009);
         "P. Giannozzi et al., J. Phys.:Condens. Matter 29 465901 (2017);
          URL http://www.quantum-espresso.org", 
     in publications or presentations arising from this work. More details at
     http://www.quantum-espresso.org/quote

     Parallel version (MPI), running on    60 processors

     MPI processes distributed on    15 nodes
     K-points division:     npool     =      15
     R & G space division:  proc/nbgrp/npool/nimage =       4
     Reading input from Si.I4_1amd_1ML.scf.in

     Current dimensions of program PWSCF are:
     Max number of different atomic species (ntypx) = 10
     Max number of k-points (npk) =  40000
     Max angular momentum in pseudopotentials (lmaxx) =  3
               file Si.pbe-nl-kjpaw_psl.1.0.0.UPF: wavefunction(s)  3S 3P renormalized

     Subspace diagonalization in iterative solution of the eigenvalue problem:
     a serial algorithm will be used

 
     Parallelization info
     --------------------
     sticks:   dense  smooth     PW     G-vecs:    dense   smooth      PW
     Min         280     280     83                25044    25044    3993
     Max         282     282     84                25050    25050    4002
     Sum        1125    1125    333               100185   100185   15987
 

     Title: 
     Relaxation of atomic positions for single monolayer slab of Si using PBE   


     bravais-lattice index     =            0
     lattice parameter (alat)  =       9.0146  a.u.
     unit-cell volume          =    2563.9612 (a.u.)^3
     number of atoms/cell      =            8
     number of atomic types    =            1
     number of electrons       =        32.00
     number of Kohn-Sham states=           32
     kinetic-energy cutoff     =      45.0000  Ry
     charge density cutoff     =     175.0000  Ry
     convergence threshold     =      1.0E-08
     mixing beta               =       0.5000
     number of iterations used =            8  local-TF  mixing
     Exchange-correlation      = SLA PW PBX PBC ( 1  4  3  4 0 0)

     celldm(1)=   9.014628  celldm(2)=   0.000000  celldm(3)=   0.000000
     celldm(4)=   0.000000  celldm(5)=   0.000000  celldm(6)=   0.000000

     crystal axes: (cart. coord. in units of alat)
               a(1) = (   1.000000   0.000000   0.000000 )  
               a(2) = (   0.000000   1.000000   0.000000 )  
               a(3) = (   0.000000   0.000000   3.500000 )  

     reciprocal axes: (cart. coord. in units 2 pi/alat)
               b(1) = (  1.000000  0.000000  0.000000 )  
               b(2) = (  0.000000  1.000000  0.000000 )  
               b(3) = (  0.000000  0.000000  0.285714 )  


     PseudoPot. # 1 for Si read from file:
     /share/pseudo/Si.pbe-nl-kjpaw_psl.1.0.0.UPF
     MD5 check sum: 3686bff6734aab787fb18a3c8374d51f
     Pseudo is Projector augmented-wave + core cor, Zval =  4.0
     Generated using "atomic" code by A. Dal Corso v.6.3
     Shape of augmentation charge: PSQ
     Using radial grid of 1141 points,  4 beta functions with: 
                l(1) =   0
                l(2) =   0
                l(3) =   1
                l(4) =   1
     Q(r) pseudized with 0 coefficients 


     atomic species   valence    mass     pseudopotential
        Si             4.00    28.08600     Si( 1.00)

     No symmetry found



   Cartesian axes

     site n.     atom                  positions (alat units)
         1           Si  tau(   1) = (   0.0015570   0.0012627   1.4257892  )
         2           Si  tau(   2) = (   0.5013751   0.5012425   1.4262191  )
         3           Si  tau(   3) = (   0.0013861   0.5012663   1.2706672  )
         4           Si  tau(   4) = (   0.5015519   0.0012804   1.5979250  )
         5           Si  tau(   5) = (   0.0007085   0.0012952   1.9516755  )
         6           Si  tau(   6) = (   0.5013567   0.5012850   1.9518996  )
         7           Si  tau(   7) = (   0.0013882   0.5012392   1.7798804  )
         8           Si  tau(   8) = (   0.5008133   0.0012655   2.1071142  )

     number of k points=   113  gaussian smearing, width (Ry)=  0.0100

     Number of k-points >= 100: set verbosity='high' to print them.

     Dense  grid:   100185 G-vectors     FFT dimensions: (  40,  40, 135)

     Estimated max dynamical RAM per process >      42.86 MB

     Estimated total dynamical RAM >       2.51 GB

     Initial potential from superposition of free atoms

     starting charge   31.99553, renormalised to   32.00000

     negative rho (up, down):  7.248E-05 0.000E+00
     Starting wfcs are   32 randomized atomic wfcs
     Checking if some PAW data can be deallocated... 

     total cpu time spent up to now is        2.2 secs

     Self-consistent Calculation

     iteration #  1     ecut=    45.00 Ry     beta= 0.50
     CG style diagonalization
     ethr =  1.00E-02,  avg # of iterations =  3.9

     Threshold (ethr) on eigenvalues was too large:
     Diagonalizing with lowered threshold

     CG style diagonalization
     ethr =  7.78E-04,  avg # of iterations =  2.7

     total cpu time spent up to now is       17.0 secs

     total energy              =    -373.56852484 Ry
     Harris-Foulkes estimate   =    -373.60059978 Ry
     estimated scf accuracy    <       0.26901061 Ry

     iteration #  2     ecut=    45.00 Ry     beta= 0.50
     CG style diagonalization
     ethr =  8.41E-04,  avg # of iterations =  3.0

     total cpu time spent up to now is       21.9 secs

     total energy              =    -373.51064467 Ry
     Harris-Foulkes estimate   =    -373.57637014 Ry
     estimated scf accuracy    <       0.17210671 Ry

     iteration #  3     ecut=    45.00 Ry     beta= 0.50
     CG style diagonalization
     ethr =  5.38E-04,  avg # of iterations =  3.4

     total cpu time spent up to now is       28.2 secs

     total energy              =    -373.54068558 Ry
     Harris-Foulkes estimate   =    -373.54765087 Ry
     estimated scf accuracy    <       0.02827509 Ry

     iteration #  4     ecut=    45.00 Ry     beta= 0.50
     CG style diagonalization
     c_bands:  1 eigenvalues not converged
     ethr =  8.84E-05,  avg # of iterations =  4.1

     total cpu time spent up to now is       35.6 secs

     total energy              =    -373.54112503 Ry
     Harris-Foulkes estimate   =    -373.54551442 Ry
     estimated scf accuracy    <       0.01318814 Ry

     iteration #  5     ecut=    45.00 Ry     beta= 0.50
     CG style diagonalization
     c_bands:  1 eigenvalues not converged
     ethr =  4.12E-05,  avg # of iterations =  3.6

     total cpu time spent up to now is       42.3 secs

     total energy              =    -373.54090131 Ry
     Harris-Foulkes estimate   =    -373.54213825 Ry
     estimated scf accuracy    <       0.00809272 Ry

     iteration #  6     ecut=    45.00 Ry     beta= 0.50
     CG style diagonalization
     ethr =  2.53E-05,  avg # of iterations =  3.1

     negative rho (up, down):  3.491E-03 0.000E+00

     total cpu time spent up to now is       48.6 secs

     total energy              =    -373.53954058 Ry
     Harris-Foulkes estimate   =    -373.54116952 Ry
     estimated scf accuracy    <       0.00397452 Ry

     iteration #  7     ecut=    45.00 Ry     beta= 0.50
     CG style diagonalization
     c_bands:  3 eigenvalues not converged
     c_bands:  1 eigenvalues not converged
     ethr =  1.24E-05,  avg # of iterations =  4.5

     negative rho (up, down):  1.895E-03 0.000E+00

     total cpu time spent up to now is       57.7 secs

     total energy              =    -373.54059003 Ry
     Harris-Foulkes estimate   =    -373.54072022 Ry
     estimated scf accuracy    <       0.00166886 Ry

     iteration #  8     ecut=    45.00 Ry     beta= 0.50
     CG style diagonalization
     c_bands:  1 eigenvalues not converged
     ethr =  5.22E-06,  avg # of iterations =  3.2

     negative rho (up, down):  1.480E-03 0.000E+00

     total cpu time spent up to now is       64.1 secs

     total energy              =    -373.54068927 Ry
     Harris-Foulkes estimate   =    -373.54066917 Ry
     estimated scf accuracy    <       0.00061907 Ry

     iteration #  9     ecut=    45.00 Ry     beta= 0.50
     CG style diagonalization
     c_bands:  2 eigenvalues not converged
     ethr =  1.93E-06,  avg # of iterations =  4.3

     negative rho (up, down):  4.092E-04 0.000E+00

     total cpu time spent up to now is       72.7 secs

     total energy              =    -373.54082263 Ry
     Harris-Foulkes estimate   =    -373.54082760 Ry
     estimated scf accuracy    <       0.00005052 Ry

     iteration # 10     ecut=    45.00 Ry     beta= 0.50
     CG style diagonalization
     c_bands:  2 eigenvalues not converged
     ethr =  1.58E-07,  avg # of iterations =  3.6

     negative rho (up, down):  1.560E-05 0.000E+00

     total cpu time spent up to now is       81.4 secs

     total energy              =    -373.54084412 Ry
     Harris-Foulkes estimate   =    -373.54082988 Ry
     estimated scf accuracy    <       0.00001100 Ry

     iteration # 11     ecut=    45.00 Ry     beta= 0.50
     CG style diagonalization
     c_bands:  1 eigenvalues not converged
     ethr =  3.44E-08,  avg # of iterations =  4.0

     negative rho (up, down):  1.716E-05 0.000E+00

     total cpu time spent up to now is       90.0 secs

     total energy              =    -373.54084726 Ry
     Harris-Foulkes estimate   =    -373.54084845 Ry
     estimated scf accuracy    <       0.00000262 Ry

     iteration # 12     ecut=    45.00 Ry     beta= 0.50
     CG style diagonalization
     ethr =  8.18E-09,  avg # of iterations =  3.2

     negative rho (up, down):  2.676E-05 0.000E+00

     total cpu time spent up to now is       97.2 secs

     total energy              =    -373.54084777 Ry
     Harris-Foulkes estimate   =    -373.54084782 Ry
     estimated scf accuracy    <       0.00000006 Ry

     iteration # 13     ecut=    45.00 Ry     beta= 0.50
     CG style diagonalization
     ethr =  1.75E-10,  avg # of iterations =  4.0

     negative rho (up, down):  3.133E-05 0.000E+00

     total cpu time spent up to now is      105.4 secs

     total energy              =    -373.54084782 Ry
     Harris-Foulkes estimate   =    -373.54084783 Ry
     estimated scf accuracy    <       0.00000001 Ry

     iteration # 14     ecut=    45.00 Ry     beta= 0.50
     CG style diagonalization
     ethr =  3.24E-11,  avg # of iterations =  3.1

     negative rho (up, down):  2.688E-05 0.000E+00

     total cpu time spent up to now is      110.3 secs

     End of self-consistent calculation

     Number of k-points >= 100: set verbosity='high' to print the bands.

     the Fermi energy is     0.1668 ev

!    total energy              =    -373.54084782 Ry
     Harris-Foulkes estimate   =    -373.54084783 Ry
     estimated scf accuracy    <          5.8E-09 Ry

     total all-electron energy =     -4640.307768 Ry

     The total energy is the sum of the following terms:

     one-electron contribution =    -371.13834489 Ry
     hartree contribution      =     194.06595881 Ry
     xc contribution           =     -39.25514468 Ry
     ewald contribution        =     137.26958354 Ry
     one-center paw contrib.   =    -294.48110352 Ry
     smearing contrib. (-TS)   =      -0.00179707 Ry

     convergence has been achieved in  14 iterations

     negative rho (up, down):  2.688E-05 0.000E+00

     Forces acting on atoms (cartesian axes, Ry/au):

     atom    1 type  1   force =    -0.00007633   -0.00000198    0.00018856
     atom    2 type  1   force =     0.00009283    0.00003561   -0.00012341
     atom    3 type  1   force =    -0.00004372   -0.00000584    0.00006259
     atom    4 type  1   force =    -0.00012267   -0.00003885   -0.00010755
     atom    5 type  1   force =     0.00015733   -0.00004950    0.00001616
     atom    6 type  1   force =    -0.00009443   -0.00001652   -0.00002299
     atom    7 type  1   force =    -0.00004194    0.00005491   -0.00001489
     atom    8 type  1   force =     0.00012894    0.00002218    0.00000152

     Total force =     0.000400     Total SCF correction =     0.000092
     SCF correction compared to forces is large: reduce conv_thr to get better values


     Computing stress (Cartesian axis) and pressure


     negative rho (up, down):  2.688E-05 0.000E+00
          total   stress  (Ry/bohr**3)                   (kbar)     P=   -0.23
  -0.00000229  -0.00000000   0.00000032         -0.34     -0.00      0.05
  -0.00000000  -0.00000144  -0.00000003         -0.00     -0.21     -0.00
   0.00000032  -0.00000003  -0.00000091          0.05     -0.00     -0.13


     Writing output data file Si.I4_1amd_1ML.save/
 
     init_run     :      1.08s CPU      1.37s WALL (       1 calls)
     electrons    :     96.43s CPU    108.38s WALL (       1 calls)
     forces       :      0.27s CPU      0.28s WALL (       1 calls)
     stress       :      1.14s CPU      1.34s WALL (       1 calls)

     Called by init_run:
     wfcinit      :      0.59s CPU      0.60s WALL (       1 calls)
     potinit      :      0.28s CPU      0.47s WALL (       1 calls)
     hinit0       :      0.12s CPU      0.12s WALL (       1 calls)

     Called by electrons:
     c_bands      :     75.05s CPU     82.35s WALL (      15 calls)
     sum_band     :      5.93s CPU      7.32s WALL (      15 calls)
     v_of_rho     :      0.45s CPU      0.50s WALL (      15 calls)
     newd         :      0.06s CPU      0.08s WALL (      15 calls)
     PAW_pot      :      1.92s CPU      3.74s WALL (      15 calls)
     mix_rho      :     11.88s CPU     12.02s WALL (      15 calls)

     Called by c_bands:
     init_us_2    :      0.35s CPU      0.40s WALL (     264 calls)
     ccgdiagg     :     60.88s CPU     61.57s WALL (     120 calls)
     wfcrot       :      7.50s CPU      7.60s WALL (     112 calls)

     Called by sum_band:
     sum_band:bec :      0.00s CPU      0.00s WALL (     120 calls)
     addusdens    :      0.46s CPU      0.96s WALL (      15 calls)

     Called by *cgdiagg:
     h_psi        :     42.56s CPU     43.26s WALL (   10460 calls)
     s_psi        :     13.50s CPU     13.42s WALL (   20808 calls)
     cdiaghg      :      0.02s CPU      0.03s WALL (     112 calls)

     Called by h_psi:
     h_psi:pot    :     42.35s CPU     42.99s WALL (   10460 calls)
     h_psi:calbec :      9.49s CPU      9.86s WALL (   10460 calls)
     vloc_psi     :     25.76s CPU     26.13s WALL (   10460 calls)
     add_vuspsi   :      7.01s CPU      6.96s WALL (   10460 calls)
     hs_1psi      :     42.70s CPU     43.36s WALL (   10348 calls)
     s_1psi       :     13.82s CPU     13.91s WALL (   10348 calls)

     General routines
     calbec       :     16.74s CPU     17.37s WALL (   20968 calls)
     fft          :      0.34s CPU      0.42s WALL (     191 calls)
     ffts         :      5.33s CPU      5.46s WALL (    3318 calls)
     fftw         :     21.65s CPU     21.95s WALL (   31704 calls)
 
     Parallel routines
     fft_scatt_xy :      5.18s CPU      5.21s WALL (   35213 calls)
     fft_scatt_yz :      6.11s CPU      6.43s WALL (   35213 calls)
 
     PWSCF        :   1m39.62s CPU   3m 4.32s WALL

 
   This run was terminated on:  17:39:51   7Sep2021            

=------------------------------------------------------------------------------=
   JOB DONE.
=------------------------------------------------------------------------------=
Note: The following floating-point exceptions are signalling: IEEE_UNDERFLOW_FLAG IEEE_DENORMAL
Note: The following floating-point exceptions are signalling: IEEE_UNDERFLOW_FLAG IEEE_DENORMAL
Note: The following floating-point exceptions are signalling: IEEE_UNDERFLOW_FLAG IEEE_DENORMAL
Note: The following floating-point exceptions are signalling: IEEE_UNDERFLOW_FLAG IEEE_DENORMAL
