
     Program PWSCF v.6.3MaX starts on 13Jul2020 at 20:58:32 

     This program is part of the open-source Quantum ESPRESSO suite
     for quantum simulation of materials; please cite
         "P. Giannozzi et al., J. Phys.:Condens. Matter 21 395502 (2009);
         "P. Giannozzi et al., J. Phys.:Condens. Matter 29 465901 (2017);
          URL http://www.quantum-espresso.org", 
     in publications or presentations arising from this work. More details at
     http://www.quantum-espresso.org/quote

     Serial version
     Waiting for input...
     Reading input from standard input

     Current dimensions of program PWSCF are:
     Max number of different atomic species (ntypx) = 10
     Max number of k-points (npk) =  40000
     Max angular momentum in pseudopotentials (lmaxx) =  3
 
     G-vector sticks info
     --------------------
     sticks:   dense  smooth     PW     G-vecs:    dense   smooth      PW
     Sum         745     745    223                13323    13323    2229
 

     Title: 
     Diamond (Fd-3m) Si in GGA-PBE                                              


     bravais-lattice index     =            2
     lattice parameter (alat)  =      10.3353  a.u.
     unit-cell volume          =     276.0014 (a.u.)^3
     number of atoms/cell      =            2
     number of atomic types    =            1
     number of electrons       =         8.00
     number of Kohn-Sham states=            8
     kinetic-energy cutoff     =      50.0000  Ry
     charge density cutoff     =     200.0000  Ry
     convergence threshold     =      1.0E-10
     mixing beta               =       0.7000
     number of iterations used =            8  plain     mixing
     Exchange-correlation      = PBE ( 1  4  3  4 0 0)

     celldm(1)=  10.335316  celldm(2)=   0.000000  celldm(3)=   0.000000
     celldm(4)=   0.000000  celldm(5)=   0.000000  celldm(6)=   0.000000

     crystal axes: (cart. coord. in units of alat)
               a(1) = (  -0.500000   0.000000   0.500000 )  
               a(2) = (   0.000000   0.500000   0.500000 )  
               a(3) = (  -0.500000   0.500000   0.000000 )  

     reciprocal axes: (cart. coord. in units 2 pi/alat)
               b(1) = ( -1.000000 -1.000000  1.000000 )  
               b(2) = (  1.000000  1.000000  1.000000 )  
               b(3) = ( -1.000000  1.000000 -1.000000 )  


     PseudoPot. # 1 for Si read from file:
     /Users/williamparker/Library/Pseudopotentials/SSSP_efficiency_pseudos/Si.pbe-n-rrkjus_psl.1.0.0.UPF
     MD5 check sum: 0b0bb1205258b0d07b9f9672cf965d36
     Pseudo is Ultrasoft + core correction, Zval =  4.0
     Generated using "atomic" code by A. Dal Corso v.5.1
     Using radial grid of 1141 points,  6 beta functions with: 
                l(1) =   0
                l(2) =   0
                l(3) =   1
                l(4) =   1
                l(5) =   2
                l(6) =   2
     Q(r) pseudized with 0 coefficients 


     atomic species   valence    mass     pseudopotential
        Si             4.00    28.08600     Si( 1.00)

     48 Sym. Ops., with inversion, found (24 have fractional translation)


                                    s                        frac. trans.

      isym =  1     identity                                     

 cryst.   s( 1) = (     1          0          0      )
                  (     0          1          0      )
                  (     0          0          1      )

 cart.    s( 1) = (  1.0000000  0.0000000  0.0000000 )
                  (  0.0000000  1.0000000  0.0000000 )
                  (  0.0000000  0.0000000  1.0000000 )


      isym =  2     180 deg rotation - cart. axis [0,0,1]        

 cryst.   s( 2) = (     0          1         -1      )
                  (     1          0         -1      )
                  (     0          0         -1      )

 cart.    s( 2) = ( -1.0000000  0.0000000  0.0000000 )
                  (  0.0000000 -1.0000000  0.0000000 )
                  (  0.0000000  0.0000000  1.0000000 )


      isym =  3     180 deg rotation - cart. axis [0,1,0]        

 cryst.   s( 3) = (    -1          0          0      )
                  (    -1          0          1      )
                  (    -1          1          0      )

 cart.    s( 3) = ( -1.0000000  0.0000000  0.0000000 )
                  (  0.0000000  1.0000000  0.0000000 )
                  (  0.0000000  0.0000000 -1.0000000 )


      isym =  4     180 deg rotation - cart. axis [1,0,0]        

 cryst.   s( 4) = (     0         -1          1      )
                  (     0         -1          0      )
                  (     1         -1          0      )

 cart.    s( 4) = (  1.0000000  0.0000000  0.0000000 )
                  (  0.0000000 -1.0000000  0.0000000 )
                  (  0.0000000  0.0000000 -1.0000000 )


      isym =  5     180 deg rotation - cart. axis [1,1,0]        

 cryst.   s( 5) = (     0         -1          0      )    f =( -0.2500000 )
                  (    -1          0          0      )       ( -0.2500000 )
                  (     0          0         -1      )       ( -0.2500000 )

 cart.    s( 5) = (  0.0000000  1.0000000  0.0000000 )    f =(  0.2500000 )
                  (  1.0000000  0.0000000  0.0000000 )       ( -0.2500000 )
                  (  0.0000000  0.0000000 -1.0000000 )       ( -0.2500000 )


      isym =  6     180 deg rotation - cart. axis [1,-1,0]       

 cryst.   s( 6) = (    -1          0          1      )    f =( -0.2500000 )
                  (     0         -1          1      )       ( -0.2500000 )
                  (     0          0          1      )       ( -0.2500000 )

 cart.    s( 6) = (  0.0000000 -1.0000000  0.0000000 )    f =(  0.2500000 )
                  ( -1.0000000  0.0000000  0.0000000 )       ( -0.2500000 )
                  (  0.0000000  0.0000000 -1.0000000 )       ( -0.2500000 )


      isym =  7      90 deg rotation - cart. axis [0,0,-1]       

 cryst.   s( 7) = (     0          1          0      )    f =( -0.2500000 )
                  (     0          1         -1      )       ( -0.2500000 )
                  (    -1          1          0      )       ( -0.2500000 )

 cart.    s( 7) = (  0.0000000  1.0000000  0.0000000 )    f =(  0.2500000 )
                  ( -1.0000000  0.0000000  0.0000000 )       ( -0.2500000 )
                  (  0.0000000  0.0000000  1.0000000 )       ( -0.2500000 )


      isym =  8      90 deg rotation - cart. axis [0,0,1]        

 cryst.   s( 8) = (     1          0         -1      )    f =( -0.2500000 )
                  (     1          0          0      )       ( -0.2500000 )
                  (     1         -1          0      )       ( -0.2500000 )

 cart.    s( 8) = (  0.0000000 -1.0000000  0.0000000 )    f =(  0.2500000 )
                  (  1.0000000  0.0000000  0.0000000 )       ( -0.2500000 )
                  (  0.0000000  0.0000000  1.0000000 )       ( -0.2500000 )


      isym =  9     180 deg rotation - cart. axis [1,0,1]        

 cryst.   s( 9) = (    -1          0          0      )    f =( -0.2500000 )
                  (     0          0         -1      )       ( -0.2500000 )
                  (     0         -1          0      )       ( -0.2500000 )

 cart.    s( 9) = (  0.0000000  0.0000000  1.0000000 )    f =(  0.2500000 )
                  (  0.0000000 -1.0000000  0.0000000 )       ( -0.2500000 )
                  (  1.0000000  0.0000000  0.0000000 )       ( -0.2500000 )


      isym = 10     180 deg rotation - cart. axis [-1,0,1]       

 cryst.   s(10) = (     1          0          0      )    f =( -0.2500000 )
                  (     1         -1          0      )       ( -0.2500000 )
                  (     1          0         -1      )       ( -0.2500000 )

 cart.    s(10) = (  0.0000000  0.0000000 -1.0000000 )    f =(  0.2500000 )
                  (  0.0000000 -1.0000000  0.0000000 )       ( -0.2500000 )
                  ( -1.0000000  0.0000000  0.0000000 )       ( -0.2500000 )


      isym = 11      90 deg rotation - cart. axis [0,1,0]        

 cryst.   s(11) = (     0          1         -1      )    f =( -0.2500000 )
                  (    -1          1          0      )       ( -0.2500000 )
                  (     0          1          0      )       ( -0.2500000 )

 cart.    s(11) = (  0.0000000  0.0000000  1.0000000 )    f =(  0.2500000 )
                  (  0.0000000  1.0000000  0.0000000 )       ( -0.2500000 )
                  ( -1.0000000  0.0000000  0.0000000 )       ( -0.2500000 )


      isym = 12      90 deg rotation - cart. axis [0,-1,0]       

 cryst.   s(12) = (     0         -1          1      )    f =( -0.2500000 )
                  (     0          0          1      )       ( -0.2500000 )
                  (    -1          0          1      )       ( -0.2500000 )

 cart.    s(12) = (  0.0000000  0.0000000 -1.0000000 )    f =(  0.2500000 )
                  (  0.0000000  1.0000000  0.0000000 )       ( -0.2500000 )
                  (  1.0000000  0.0000000  0.0000000 )       ( -0.2500000 )


      isym = 13     180 deg rotation - cart. axis [0,1,1]        

 cryst.   s(13) = (    -1          1          0      )    f =( -0.2500000 )
                  (     0          1          0      )       ( -0.2500000 )
                  (     0          1         -1      )       ( -0.2500000 )

 cart.    s(13) = ( -1.0000000  0.0000000  0.0000000 )    f =(  0.2500000 )
                  (  0.0000000  0.0000000  1.0000000 )       ( -0.2500000 )
                  (  0.0000000  1.0000000  0.0000000 )       ( -0.2500000 )


      isym = 14     180 deg rotation - cart. axis [0,1,-1]       

 cryst.   s(14) = (     0          0         -1      )    f =( -0.2500000 )
                  (     0         -1          0      )       ( -0.2500000 )
                  (    -1          0          0      )       ( -0.2500000 )

 cart.    s(14) = ( -1.0000000  0.0000000  0.0000000 )    f =(  0.2500000 )
                  (  0.0000000  0.0000000 -1.0000000 )       ( -0.2500000 )
                  (  0.0000000 -1.0000000  0.0000000 )       ( -0.2500000 )


      isym = 15      90 deg rotation - cart. axis [-1,0,0]       

 cryst.   s(15) = (     0          0          1      )    f =( -0.2500000 )
                  (    -1          0          1      )       ( -0.2500000 )
                  (     0         -1          1      )       ( -0.2500000 )

 cart.    s(15) = (  1.0000000  0.0000000  0.0000000 )    f =(  0.2500000 )
                  (  0.0000000  0.0000000  1.0000000 )       ( -0.2500000 )
                  (  0.0000000 -1.0000000  0.0000000 )       ( -0.2500000 )


      isym = 16      90 deg rotation - cart. axis [1,0,0]        

 cryst.   s(16) = (     1         -1          0      )    f =( -0.2500000 )
                  (     1          0         -1      )       ( -0.2500000 )
                  (     1          0          0      )       ( -0.2500000 )

 cart.    s(16) = (  1.0000000  0.0000000  0.0000000 )    f =(  0.2500000 )
                  (  0.0000000  0.0000000 -1.0000000 )       ( -0.2500000 )
                  (  0.0000000  1.0000000  0.0000000 )       ( -0.2500000 )


      isym = 17     120 deg rotation - cart. axis [-1,-1,-1]     

 cryst.   s(17) = (    -1          0          1      )
                  (    -1          1          0      )
                  (    -1          0          0      )

 cart.    s(17) = (  0.0000000  1.0000000  0.0000000 )
                  (  0.0000000  0.0000000  1.0000000 )
                  (  1.0000000  0.0000000  0.0000000 )


      isym = 18     120 deg rotation - cart. axis [-1,1,1]       

 cryst.   s(18) = (     0          1          0      )
                  (     0          0          1      )
                  (     1          0          0      )

 cart.    s(18) = (  0.0000000 -1.0000000  0.0000000 )
                  (  0.0000000  0.0000000  1.0000000 )
                  ( -1.0000000  0.0000000  0.0000000 )


      isym = 19     120 deg rotation - cart. axis [1,1,-1]       

 cryst.   s(19) = (     1          0         -1      )
                  (     0          0         -1      )
                  (     0          1         -1      )

 cart.    s(19) = (  0.0000000  1.0000000  0.0000000 )
                  (  0.0000000  0.0000000 -1.0000000 )
                  ( -1.0000000  0.0000000  0.0000000 )


      isym = 20     120 deg rotation - cart. axis [1,-1,1]       

 cryst.   s(20) = (     0         -1          0      )
                  (     1         -1          0      )
                  (     0         -1          1      )

 cart.    s(20) = (  0.0000000 -1.0000000  0.0000000 )
                  (  0.0000000  0.0000000 -1.0000000 )
                  (  1.0000000  0.0000000  0.0000000 )


      isym = 21     120 deg rotation - cart. axis [1,1,1]        

 cryst.   s(21) = (     0          0         -1      )
                  (     0          1         -1      )
                  (     1          0         -1      )

 cart.    s(21) = (  0.0000000  0.0000000  1.0000000 )
                  (  1.0000000  0.0000000  0.0000000 )
                  (  0.0000000  1.0000000  0.0000000 )


      isym = 22     120 deg rotation - cart. axis [-1,1,-1]      

 cryst.   s(22) = (    -1          1          0      )
                  (    -1          0          0      )
                  (    -1          0          1      )

 cart.    s(22) = (  0.0000000  0.0000000  1.0000000 )
                  ( -1.0000000  0.0000000  0.0000000 )
                  (  0.0000000 -1.0000000  0.0000000 )


      isym = 23     120 deg rotation - cart. axis [1,-1,-1]      

 cryst.   s(23) = (     0          0          1      )
                  (     1          0          0      )
                  (     0          1          0      )

 cart.    s(23) = (  0.0000000  0.0000000 -1.0000000 )
                  ( -1.0000000  0.0000000  0.0000000 )
                  (  0.0000000  1.0000000  0.0000000 )


      isym = 24     120 deg rotation - cart. axis [-1,-1,1]      

 cryst.   s(24) = (     1         -1          0      )
                  (     0         -1          1      )
                  (     0         -1          0      )

 cart.    s(24) = (  0.0000000  0.0000000 -1.0000000 )
                  (  1.0000000  0.0000000  0.0000000 )
                  (  0.0000000 -1.0000000  0.0000000 )


      isym = 25     inversion                                    

 cryst.   s(25) = (    -1          0          0      )    f =( -0.2500000 )
                  (     0         -1          0      )       ( -0.2500000 )
                  (     0          0         -1      )       ( -0.2500000 )

 cart.    s(25) = ( -1.0000000  0.0000000  0.0000000 )    f =(  0.2500000 )
                  (  0.0000000 -1.0000000  0.0000000 )       ( -0.2500000 )
                  (  0.0000000  0.0000000 -1.0000000 )       ( -0.2500000 )


      isym = 26     inv. 180 deg rotation - cart. axis [0,0,1]   

 cryst.   s(26) = (     0         -1          1      )    f =( -0.2500000 )
                  (    -1          0          1      )       ( -0.2500000 )
                  (     0          0          1      )       ( -0.2500000 )

 cart.    s(26) = (  1.0000000  0.0000000  0.0000000 )    f =(  0.2500000 )
                  (  0.0000000  1.0000000  0.0000000 )       ( -0.2500000 )
                  (  0.0000000  0.0000000 -1.0000000 )       ( -0.2500000 )


      isym = 27     inv. 180 deg rotation - cart. axis [0,1,0]   

 cryst.   s(27) = (     1          0          0      )    f =( -0.2500000 )
                  (     1          0         -1      )       ( -0.2500000 )
                  (     1         -1          0      )       ( -0.2500000 )

 cart.    s(27) = (  1.0000000  0.0000000  0.0000000 )    f =(  0.2500000 )
                  (  0.0000000 -1.0000000  0.0000000 )       ( -0.2500000 )
                  (  0.0000000  0.0000000  1.0000000 )       ( -0.2500000 )


      isym = 28     inv. 180 deg rotation - cart. axis [1,0,0]   

 cryst.   s(28) = (     0          1         -1      )    f =( -0.2500000 )
                  (     0          1          0      )       ( -0.2500000 )
                  (    -1          1          0      )       ( -0.2500000 )

 cart.    s(28) = ( -1.0000000  0.0000000  0.0000000 )    f =(  0.2500000 )
                  (  0.0000000  1.0000000  0.0000000 )       ( -0.2500000 )
                  (  0.0000000  0.0000000  1.0000000 )       ( -0.2500000 )


      isym = 29     inv. 180 deg rotation - cart. axis [1,1,0]   

 cryst.   s(29) = (     0          1          0      )
                  (     1          0          0      )
                  (     0          0          1      )

 cart.    s(29) = (  0.0000000 -1.0000000  0.0000000 )
                  ( -1.0000000  0.0000000  0.0000000 )
                  (  0.0000000  0.0000000  1.0000000 )


      isym = 30     inv. 180 deg rotation - cart. axis [1,-1,0]  

 cryst.   s(30) = (     1          0         -1      )
                  (     0          1         -1      )
                  (     0          0         -1      )

 cart.    s(30) = (  0.0000000  1.0000000  0.0000000 )
                  (  1.0000000  0.0000000  0.0000000 )
                  (  0.0000000  0.0000000  1.0000000 )


      isym = 31     inv.  90 deg rotation - cart. axis [0,0,-1]  

 cryst.   s(31) = (     0         -1          0      )
                  (     0         -1          1      )
                  (     1         -1          0      )

 cart.    s(31) = (  0.0000000 -1.0000000  0.0000000 )
                  (  1.0000000  0.0000000  0.0000000 )
                  (  0.0000000  0.0000000 -1.0000000 )


      isym = 32     inv.  90 deg rotation - cart. axis [0,0,1]   

 cryst.   s(32) = (    -1          0          1      )
                  (    -1          0          0      )
                  (    -1          1          0      )

 cart.    s(32) = (  0.0000000  1.0000000  0.0000000 )
                  ( -1.0000000  0.0000000  0.0000000 )
                  (  0.0000000  0.0000000 -1.0000000 )


      isym = 33     inv. 180 deg rotation - cart. axis [1,0,1]   

 cryst.   s(33) = (     1          0          0      )
                  (     0          0          1      )
                  (     0          1          0      )

 cart.    s(33) = (  0.0000000  0.0000000 -1.0000000 )
                  (  0.0000000  1.0000000  0.0000000 )
                  ( -1.0000000  0.0000000  0.0000000 )


      isym = 34     inv. 180 deg rotation - cart. axis [-1,0,1]  

 cryst.   s(34) = (    -1          0          0      )
                  (    -1          1          0      )
                  (    -1          0          1      )

 cart.    s(34) = (  0.0000000  0.0000000  1.0000000 )
                  (  0.0000000  1.0000000  0.0000000 )
                  (  1.0000000  0.0000000  0.0000000 )


      isym = 35     inv.  90 deg rotation - cart. axis [0,1,0]   

 cryst.   s(35) = (     0         -1          1      )
                  (     1         -1          0      )
                  (     0         -1          0      )

 cart.    s(35) = (  0.0000000  0.0000000 -1.0000000 )
                  (  0.0000000 -1.0000000  0.0000000 )
                  (  1.0000000  0.0000000  0.0000000 )


      isym = 36     inv.  90 deg rotation - cart. axis [0,-1,0]  

 cryst.   s(36) = (     0          1         -1      )
                  (     0          0         -1      )
                  (     1          0         -1      )

 cart.    s(36) = (  0.0000000  0.0000000  1.0000000 )
                  (  0.0000000 -1.0000000  0.0000000 )
                  ( -1.0000000  0.0000000  0.0000000 )


      isym = 37     inv. 180 deg rotation - cart. axis [0,1,1]   

 cryst.   s(37) = (     1         -1          0      )
                  (     0         -1          0      )
                  (     0         -1          1      )

 cart.    s(37) = (  1.0000000  0.0000000  0.0000000 )
                  (  0.0000000  0.0000000 -1.0000000 )
                  (  0.0000000 -1.0000000  0.0000000 )


      isym = 38     inv. 180 deg rotation - cart. axis [0,1,-1]  

 cryst.   s(38) = (     0          0          1      )
                  (     0          1          0      )
                  (     1          0          0      )

 cart.    s(38) = (  1.0000000  0.0000000  0.0000000 )
                  (  0.0000000  0.0000000  1.0000000 )
                  (  0.0000000  1.0000000  0.0000000 )


      isym = 39     inv.  90 deg rotation - cart. axis [-1,0,0]  

 cryst.   s(39) = (     0          0         -1      )
                  (     1          0         -1      )
                  (     0          1         -1      )

 cart.    s(39) = ( -1.0000000  0.0000000  0.0000000 )
                  (  0.0000000  0.0000000 -1.0000000 )
                  (  0.0000000  1.0000000  0.0000000 )


      isym = 40     inv.  90 deg rotation - cart. axis [1,0,0]   

 cryst.   s(40) = (    -1          1          0      )
                  (    -1          0          1      )
                  (    -1          0          0      )

 cart.    s(40) = ( -1.0000000  0.0000000  0.0000000 )
                  (  0.0000000  0.0000000  1.0000000 )
                  (  0.0000000 -1.0000000  0.0000000 )


      isym = 41     inv. 120 deg rotation - cart. axis [-1,-1,-1]

 cryst.   s(41) = (     1          0         -1      )    f =( -0.2500000 )
                  (     1         -1          0      )       ( -0.2500000 )
                  (     1          0          0      )       ( -0.2500000 )

 cart.    s(41) = (  0.0000000 -1.0000000  0.0000000 )    f =(  0.2500000 )
                  (  0.0000000  0.0000000 -1.0000000 )       ( -0.2500000 )
                  ( -1.0000000  0.0000000  0.0000000 )       ( -0.2500000 )


      isym = 42     inv. 120 deg rotation - cart. axis [-1,1,1]  

 cryst.   s(42) = (     0         -1          0      )    f =( -0.2500000 )
                  (     0          0         -1      )       ( -0.2500000 )
                  (    -1          0          0      )       ( -0.2500000 )

 cart.    s(42) = (  0.0000000  1.0000000  0.0000000 )    f =(  0.2500000 )
                  (  0.0000000  0.0000000 -1.0000000 )       ( -0.2500000 )
                  (  1.0000000  0.0000000  0.0000000 )       ( -0.2500000 )


      isym = 43     inv. 120 deg rotation - cart. axis [1,1,-1]  

 cryst.   s(43) = (    -1          0          1      )    f =( -0.2500000 )
                  (     0          0          1      )       ( -0.2500000 )
                  (     0         -1          1      )       ( -0.2500000 )

 cart.    s(43) = (  0.0000000 -1.0000000  0.0000000 )    f =(  0.2500000 )
                  (  0.0000000  0.0000000  1.0000000 )       ( -0.2500000 )
                  (  1.0000000  0.0000000  0.0000000 )       ( -0.2500000 )


      isym = 44     inv. 120 deg rotation - cart. axis [1,-1,1]  

 cryst.   s(44) = (     0          1          0      )    f =( -0.2500000 )
                  (    -1          1          0      )       ( -0.2500000 )
                  (     0          1         -1      )       ( -0.2500000 )

 cart.    s(44) = (  0.0000000  1.0000000  0.0000000 )    f =(  0.2500000 )
                  (  0.0000000  0.0000000  1.0000000 )       ( -0.2500000 )
                  ( -1.0000000  0.0000000  0.0000000 )       ( -0.2500000 )


      isym = 45     inv. 120 deg rotation - cart. axis [1,1,1]   

 cryst.   s(45) = (     0          0          1      )    f =( -0.2500000 )
                  (     0         -1          1      )       ( -0.2500000 )
                  (    -1          0          1      )       ( -0.2500000 )

 cart.    s(45) = (  0.0000000  0.0000000 -1.0000000 )    f =(  0.2500000 )
                  ( -1.0000000  0.0000000  0.0000000 )       ( -0.2500000 )
                  (  0.0000000 -1.0000000  0.0000000 )       ( -0.2500000 )


      isym = 46     inv. 120 deg rotation - cart. axis [-1,1,-1] 

 cryst.   s(46) = (     1         -1          0      )    f =( -0.2500000 )
                  (     1          0          0      )       ( -0.2500000 )
                  (     1          0         -1      )       ( -0.2500000 )

 cart.    s(46) = (  0.0000000  0.0000000 -1.0000000 )    f =(  0.2500000 )
                  (  1.0000000  0.0000000  0.0000000 )       ( -0.2500000 )
                  (  0.0000000  1.0000000  0.0000000 )       ( -0.2500000 )


      isym = 47     inv. 120 deg rotation - cart. axis [1,-1,-1] 

 cryst.   s(47) = (     0          0         -1      )    f =( -0.2500000 )
                  (    -1          0          0      )       ( -0.2500000 )
                  (     0         -1          0      )       ( -0.2500000 )

 cart.    s(47) = (  0.0000000  0.0000000  1.0000000 )    f =(  0.2500000 )
                  (  1.0000000  0.0000000  0.0000000 )       ( -0.2500000 )
                  (  0.0000000 -1.0000000  0.0000000 )       ( -0.2500000 )


      isym = 48     inv. 120 deg rotation - cart. axis [-1,-1,1] 

 cryst.   s(48) = (    -1          1          0      )    f =( -0.2500000 )
                  (     0          1         -1      )       ( -0.2500000 )
                  (     0          1          0      )       ( -0.2500000 )

 cart.    s(48) = (  0.0000000  0.0000000  1.0000000 )    f =(  0.2500000 )
                  ( -1.0000000  0.0000000  0.0000000 )       ( -0.2500000 )
                  (  0.0000000  1.0000000  0.0000000 )       ( -0.2500000 )


     point group O_h (m-3m) 
     there are 10 classes
     the character table:

       E     8C3   3C2   6C4   6C2'  i     8S6   3s_h  6S4   6s_d 
A_1g   1.00  1.00  1.00  1.00  1.00  1.00  1.00  1.00  1.00  1.00
A_2g   1.00  1.00  1.00 -1.00 -1.00  1.00  1.00  1.00 -1.00 -1.00
E_g    2.00 -1.00  2.00  0.00  0.00  2.00 -1.00  2.00  0.00  0.00
T_1g   3.00  0.00 -1.00  1.00 -1.00  3.00  0.00 -1.00  1.00 -1.00
T_2g   3.00  0.00 -1.00 -1.00  1.00  3.00  0.00 -1.00 -1.00  1.00
A_1u   1.00  1.00  1.00  1.00  1.00 -1.00 -1.00 -1.00 -1.00 -1.00
A_2u   1.00  1.00  1.00 -1.00 -1.00 -1.00 -1.00 -1.00  1.00  1.00
E_u    2.00 -1.00  2.00  0.00  0.00 -2.00  1.00 -2.00  0.00  0.00
T_1u   3.00  0.00 -1.00  1.00 -1.00 -3.00  0.00  1.00 -1.00  1.00
T_2u   3.00  0.00 -1.00 -1.00  1.00 -3.00  0.00  1.00  1.00 -1.00

     the symmetry operations in each class and the name of the first element:

     E        1
          identity                                               
     8C3     17   19   20   18   24   21   22   23
          120 deg rotation - cart. axis [-1,-1,-1]               
     3C2      2    4    3
          180 deg rotation - cart. axis [0,0,1]                  
     6C4      7    8   15   16   12   11
           90 deg rotation - cart. axis [0,0,-1]                 
     6C2'     5    6   14   13   10    9
          180 deg rotation - cart. axis [1,1,0]                  
     i       25
          inversion                                              
     8S6     41   43   44   42   48   45   46   47
          inv. 120 deg rotation - cart. axis [-1,-1,-1]          
     3s_h    26   28   27
          inv. 180 deg rotation - cart. axis [0,0,1]             
     6S4     31   32   39   40   36   35
          inv.  90 deg rotation - cart. axis [0,0,-1]            
     6s_d    29   30   38   37   34   33
          inv. 180 deg rotation - cart. axis [1,1,0]             

   Cartesian axes

     site n.     atom                  positions (alat units)
         1           Si  tau(   1) = (   0.0000000   0.0000000   0.0000000  )
         2           Si  tau(   2) = (  -0.2500000   0.2500000   0.2500000  )

   Crystallographic axes

     site n.     atom                  positions (cryst. coord.)
         1           Si  tau(   1) = (  0.0000000  0.0000000  0.0000000  )
         2           Si  tau(   2) = (  0.2500000  0.2500000  0.2500000  )

     number of k points=   120  gaussian smearing, width (Ry)=  0.0010
                       cart. coord. in units 2pi/alat
        k(    1) = (   0.0000000   0.0000000   0.0000000), wk =   0.0005926
        k(    2) = (  -0.0666667   0.0666667  -0.0666667), wk =   0.0047407
        k(    3) = (  -0.1333333   0.1333333  -0.1333333), wk =   0.0047407
        k(    4) = (  -0.2000000   0.2000000  -0.2000000), wk =   0.0047407
        k(    5) = (  -0.2666667   0.2666667  -0.2666667), wk =   0.0047407
        k(    6) = (  -0.3333333   0.3333333  -0.3333333), wk =   0.0047407
        k(    7) = (  -0.4000000   0.4000000  -0.4000000), wk =   0.0047407
        k(    8) = (  -0.4666667   0.4666667  -0.4666667), wk =   0.0047407
        k(    9) = (   0.0000000   0.1333333   0.0000000), wk =   0.0035556
        k(   10) = (  -0.0666667   0.2000000  -0.0666667), wk =   0.0142222
        k(   11) = (  -0.1333333   0.2666667  -0.1333333), wk =   0.0142222
        k(   12) = (  -0.2000000   0.3333333  -0.2000000), wk =   0.0142222
        k(   13) = (  -0.2666667   0.4000000  -0.2666667), wk =   0.0142222
        k(   14) = (  -0.3333333   0.4666667  -0.3333333), wk =   0.0142222
        k(   15) = (  -0.4000000   0.5333333  -0.4000000), wk =   0.0142222
        k(   16) = (   0.5333333  -0.4000000   0.5333333), wk =   0.0142222
        k(   17) = (   0.4666667  -0.3333333   0.4666667), wk =   0.0142222
        k(   18) = (   0.4000000  -0.2666667   0.4000000), wk =   0.0142222
        k(   19) = (   0.3333333  -0.2000000   0.3333333), wk =   0.0142222
        k(   20) = (   0.2666667  -0.1333333   0.2666667), wk =   0.0142222
        k(   21) = (   0.2000000  -0.0666667   0.2000000), wk =   0.0142222
        k(   22) = (   0.1333333   0.0000000   0.1333333), wk =   0.0071111
        k(   23) = (   0.0000000   0.2666667   0.0000000), wk =   0.0035556
        k(   24) = (  -0.0666667   0.3333333  -0.0666667), wk =   0.0142222
        k(   25) = (  -0.1333333   0.4000000  -0.1333333), wk =   0.0142222
        k(   26) = (  -0.2000000   0.4666667  -0.2000000), wk =   0.0142222
        k(   27) = (  -0.2666667   0.5333333  -0.2666667), wk =   0.0142222
        k(   28) = (  -0.3333333   0.6000000  -0.3333333), wk =   0.0142222
        k(   29) = (   0.6000000  -0.3333333   0.6000000), wk =   0.0142222
        k(   30) = (   0.5333333  -0.2666667   0.5333333), wk =   0.0142222
        k(   31) = (   0.4666667  -0.2000000   0.4666667), wk =   0.0142222
        k(   32) = (   0.4000000  -0.1333333   0.4000000), wk =   0.0142222
        k(   33) = (   0.3333333  -0.0666667   0.3333333), wk =   0.0142222
        k(   34) = (   0.2666667   0.0000000   0.2666667), wk =   0.0071111
        k(   35) = (   0.0000000   0.4000000   0.0000000), wk =   0.0035556
        k(   36) = (  -0.0666667   0.4666667  -0.0666667), wk =   0.0142222
        k(   37) = (  -0.1333333   0.5333333  -0.1333333), wk =   0.0142222
        k(   38) = (  -0.2000000   0.6000000  -0.2000000), wk =   0.0142222
        k(   39) = (  -0.2666667   0.6666667  -0.2666667), wk =   0.0142222
        k(   40) = (   0.6666667  -0.2666667   0.6666667), wk =   0.0142222
        k(   41) = (   0.6000000  -0.2000000   0.6000000), wk =   0.0142222
        k(   42) = (   0.5333333  -0.1333333   0.5333333), wk =   0.0142222
        k(   43) = (   0.4666667  -0.0666667   0.4666667), wk =   0.0142222
        k(   44) = (   0.4000000   0.0000000   0.4000000), wk =   0.0071111
        k(   45) = (   0.0000000   0.5333333   0.0000000), wk =   0.0035556
        k(   46) = (  -0.0666667   0.6000000  -0.0666667), wk =   0.0142222
        k(   47) = (  -0.1333333   0.6666667  -0.1333333), wk =   0.0142222
        k(   48) = (  -0.2000000   0.7333333  -0.2000000), wk =   0.0142222
        k(   49) = (   0.7333333  -0.2000000   0.7333333), wk =   0.0142222
        k(   50) = (   0.6666667  -0.1333333   0.6666667), wk =   0.0142222
        k(   51) = (   0.6000000  -0.0666667   0.6000000), wk =   0.0142222
        k(   52) = (   0.5333333  -0.0000000   0.5333333), wk =   0.0071111
        k(   53) = (   0.0000000   0.6666667   0.0000000), wk =   0.0035556
        k(   54) = (  -0.0666667   0.7333333  -0.0666667), wk =   0.0142222
        k(   55) = (  -0.1333333   0.8000000  -0.1333333), wk =   0.0142222
        k(   56) = (   0.8000000  -0.1333333   0.8000000), wk =   0.0142222
        k(   57) = (   0.7333333  -0.0666667   0.7333333), wk =   0.0142222
        k(   58) = (   0.6666667  -0.0000000   0.6666667), wk =   0.0071111
        k(   59) = (   0.0000000   0.8000000   0.0000000), wk =   0.0035556
        k(   60) = (  -0.0666667   0.8666667  -0.0666667), wk =   0.0142222
        k(   61) = (   0.8666667  -0.0666667   0.8666667), wk =   0.0142222
        k(   62) = (   0.8000000   0.0000000   0.8000000), wk =   0.0071111
        k(   63) = (   0.0000000   0.9333333   0.0000000), wk =   0.0035556
        k(   64) = (   0.9333333   0.0000000   0.9333333), wk =   0.0071111
        k(   65) = (  -0.1333333   0.2666667   0.0000000), wk =   0.0142222
        k(   66) = (  -0.2000000   0.3333333  -0.0666667), wk =   0.0284444
        k(   67) = (  -0.2666667   0.4000000  -0.1333333), wk =   0.0284444
        k(   68) = (  -0.3333333   0.4666667  -0.2000000), wk =   0.0284444
        k(   69) = (  -0.4000000   0.5333333  -0.2666667), wk =   0.0284444
        k(   70) = (   0.5333333  -0.4000000   0.6666667), wk =   0.0284444
        k(   71) = (  -0.1333333   0.4000000   0.0000000), wk =   0.0142222
        k(   72) = (  -0.2000000   0.4666667  -0.0666667), wk =   0.0284444
        k(   73) = (  -0.2666667   0.5333333  -0.1333333), wk =   0.0284444
        k(   74) = (  -0.3333333   0.6000000  -0.2000000), wk =   0.0284444
        k(   75) = (   0.6000000  -0.3333333   0.7333333), wk =   0.0284444
        k(   76) = (   0.5333333  -0.2666667   0.6666667), wk =   0.0284444
        k(   77) = (   0.4666667  -0.2000000   0.6000000), wk =   0.0284444
        k(   78) = (   0.4000000  -0.1333333   0.5333333), wk =   0.0284444
        k(   79) = (   0.3333333  -0.0666667   0.4666667), wk =   0.0284444
        k(   80) = (   0.2666667   0.0000000   0.4000000), wk =   0.0142222
        k(   81) = (  -0.1333333   0.5333333   0.0000000), wk =   0.0142222
        k(   82) = (  -0.2000000   0.6000000  -0.0666667), wk =   0.0284444
        k(   83) = (  -0.2666667   0.6666667  -0.1333333), wk =   0.0284444
        k(   84) = (   0.6666667  -0.2666667   0.8000000), wk =   0.0284444
        k(   85) = (   0.6000000  -0.2000000   0.7333333), wk =   0.0284444
        k(   86) = (   0.5333333  -0.1333333   0.6666667), wk =   0.0284444
        k(   87) = (   0.4666667  -0.0666667   0.6000000), wk =   0.0284444
        k(   88) = (   0.4000000   0.0000000   0.5333333), wk =   0.0142222
        k(   89) = (  -0.1333333   0.6666667  -0.0000000), wk =   0.0142222
        k(   90) = (  -0.2000000   0.7333333  -0.0666667), wk =   0.0284444
        k(   91) = (   0.7333333  -0.2000000   0.8666667), wk =   0.0284444
        k(   92) = (   0.6666667  -0.1333333   0.8000000), wk =   0.0284444
        k(   93) = (   0.6000000  -0.0666667   0.7333333), wk =   0.0284444
        k(   94) = (   0.5333333  -0.0000000   0.6666667), wk =   0.0142222
        k(   95) = (  -0.1333333   0.8000000   0.0000000), wk =   0.0142222
        k(   96) = (   0.8000000  -0.1333333   0.9333333), wk =   0.0284444
        k(   97) = (   0.7333333  -0.0666667   0.8666667), wk =   0.0284444
        k(   98) = (   0.6666667   0.0000000   0.8000000), wk =   0.0142222
        k(   99) = (   0.8666667  -0.0666667   1.0000000), wk =   0.0142222
        k(  100) = (   0.8000000   0.0000000   0.9333333), wk =   0.0142222
        k(  101) = (  -0.2666667   0.5333333   0.0000000), wk =   0.0142222
        k(  102) = (  -0.3333333   0.6000000  -0.0666667), wk =   0.0284444
        k(  103) = (   0.6000000  -0.3333333   0.8666667), wk =   0.0284444
        k(  104) = (   0.5333333  -0.2666667   0.8000000), wk =   0.0284444
        k(  105) = (  -0.2666667   0.6666667   0.0000000), wk =   0.0142222
        k(  106) = (   0.6666667  -0.2666667   0.9333333), wk =   0.0284444
        k(  107) = (   0.6000000  -0.2000000   0.8666667), wk =   0.0284444
        k(  108) = (   0.5333333  -0.1333333   0.8000000), wk =   0.0284444
        k(  109) = (   0.4666667  -0.0666667   0.7333333), wk =   0.0284444
        k(  110) = (   0.4000000   0.0000000   0.6666667), wk =   0.0142222
        k(  111) = (   0.7333333  -0.2000000   1.0000000), wk =   0.0142222
        k(  112) = (   0.6666667  -0.1333333   0.9333333), wk =   0.0284444
        k(  113) = (   0.6000000  -0.0666667   0.8666667), wk =   0.0284444
        k(  114) = (   0.5333333   0.0000000   0.8000000), wk =   0.0142222
        k(  115) = (   0.7333333  -0.0666667   1.0000000), wk =   0.0142222
        k(  116) = (   0.6666667   0.0000000   0.9333333), wk =   0.0142222
        k(  117) = (   0.6000000  -0.2000000   1.0000000), wk =   0.0142222
        k(  118) = (   0.5333333  -0.1333333   0.9333333), wk =   0.0284444
        k(  119) = (   0.6000000  -0.0666667   1.0000000), wk =   0.0142222
        k(  120) = (   0.5333333  -0.0000000   0.9333333), wk =   0.0142222

                       cryst. coord.
        k(    1) = (   0.0000000   0.0000000   0.0000000), wk =   0.0005926
        k(    2) = (   0.0000000   0.0000000   0.0666667), wk =   0.0047407
        k(    3) = (   0.0000000   0.0000000   0.1333333), wk =   0.0047407
        k(    4) = (   0.0000000   0.0000000   0.2000000), wk =   0.0047407
        k(    5) = (   0.0000000   0.0000000   0.2666667), wk =   0.0047407
        k(    6) = (   0.0000000   0.0000000   0.3333333), wk =   0.0047407
        k(    7) = (   0.0000000   0.0000000   0.4000000), wk =   0.0047407
        k(    8) = (   0.0000000   0.0000000   0.4666667), wk =   0.0047407
        k(    9) = (   0.0000000   0.0666667   0.0666667), wk =   0.0035556
        k(   10) = (   0.0000000   0.0666667   0.1333333), wk =   0.0142222
        k(   11) = (   0.0000000   0.0666667   0.2000000), wk =   0.0142222
        k(   12) = (   0.0000000   0.0666667   0.2666667), wk =   0.0142222
        k(   13) = (   0.0000000   0.0666667   0.3333333), wk =   0.0142222
        k(   14) = (   0.0000000   0.0666667   0.4000000), wk =   0.0142222
        k(   15) = (   0.0000000   0.0666667   0.4666667), wk =   0.0142222
        k(   16) = (   0.0000000   0.0666667  -0.4666667), wk =   0.0142222
        k(   17) = (   0.0000000   0.0666667  -0.4000000), wk =   0.0142222
        k(   18) = (   0.0000000   0.0666667  -0.3333333), wk =   0.0142222
        k(   19) = (   0.0000000   0.0666667  -0.2666667), wk =   0.0142222
        k(   20) = (   0.0000000   0.0666667  -0.2000000), wk =   0.0142222
        k(   21) = (   0.0000000   0.0666667  -0.1333333), wk =   0.0142222
        k(   22) = (   0.0000000   0.0666667  -0.0666667), wk =   0.0071111
        k(   23) = (   0.0000000   0.1333333   0.1333333), wk =   0.0035556
        k(   24) = (   0.0000000   0.1333333   0.2000000), wk =   0.0142222
        k(   25) = (   0.0000000   0.1333333   0.2666667), wk =   0.0142222
        k(   26) = (   0.0000000   0.1333333   0.3333333), wk =   0.0142222
        k(   27) = (   0.0000000   0.1333333   0.4000000), wk =   0.0142222
        k(   28) = (   0.0000000   0.1333333   0.4666667), wk =   0.0142222
        k(   29) = (   0.0000000   0.1333333  -0.4666667), wk =   0.0142222
        k(   30) = (   0.0000000   0.1333333  -0.4000000), wk =   0.0142222
        k(   31) = (   0.0000000   0.1333333  -0.3333333), wk =   0.0142222
        k(   32) = (   0.0000000   0.1333333  -0.2666667), wk =   0.0142222
        k(   33) = (   0.0000000   0.1333333  -0.2000000), wk =   0.0142222
        k(   34) = (   0.0000000   0.1333333  -0.1333333), wk =   0.0071111
        k(   35) = (   0.0000000   0.2000000   0.2000000), wk =   0.0035556
        k(   36) = (   0.0000000   0.2000000   0.2666667), wk =   0.0142222
        k(   37) = (   0.0000000   0.2000000   0.3333333), wk =   0.0142222
        k(   38) = (   0.0000000   0.2000000   0.4000000), wk =   0.0142222
        k(   39) = (   0.0000000   0.2000000   0.4666667), wk =   0.0142222
        k(   40) = (   0.0000000   0.2000000  -0.4666667), wk =   0.0142222
        k(   41) = (   0.0000000   0.2000000  -0.4000000), wk =   0.0142222
        k(   42) = (   0.0000000   0.2000000  -0.3333333), wk =   0.0142222
        k(   43) = (   0.0000000   0.2000000  -0.2666667), wk =   0.0142222
        k(   44) = (   0.0000000   0.2000000  -0.2000000), wk =   0.0071111
        k(   45) = (   0.0000000   0.2666667   0.2666667), wk =   0.0035556
        k(   46) = (   0.0000000   0.2666667   0.3333333), wk =   0.0142222
        k(   47) = (   0.0000000   0.2666667   0.4000000), wk =   0.0142222
        k(   48) = (   0.0000000   0.2666667   0.4666667), wk =   0.0142222
        k(   49) = (   0.0000000   0.2666667  -0.4666667), wk =   0.0142222
        k(   50) = (   0.0000000   0.2666667  -0.4000000), wk =   0.0142222
        k(   51) = (   0.0000000   0.2666667  -0.3333333), wk =   0.0142222
        k(   52) = (   0.0000000   0.2666667  -0.2666667), wk =   0.0071111
        k(   53) = (   0.0000000   0.3333333   0.3333333), wk =   0.0035556
        k(   54) = (   0.0000000   0.3333333   0.4000000), wk =   0.0142222
        k(   55) = (   0.0000000   0.3333333   0.4666667), wk =   0.0142222
        k(   56) = (   0.0000000   0.3333333  -0.4666667), wk =   0.0142222
        k(   57) = (   0.0000000   0.3333333  -0.4000000), wk =   0.0142222
        k(   58) = (   0.0000000   0.3333333  -0.3333333), wk =   0.0071111
        k(   59) = (   0.0000000   0.4000000   0.4000000), wk =   0.0035556
        k(   60) = (   0.0000000   0.4000000   0.4666667), wk =   0.0142222
        k(   61) = (   0.0000000   0.4000000  -0.4666667), wk =   0.0142222
        k(   62) = (   0.0000000   0.4000000  -0.4000000), wk =   0.0071111
        k(   63) = (   0.0000000   0.4666667   0.4666667), wk =   0.0035556
        k(   64) = (   0.0000000   0.4666667  -0.4666667), wk =   0.0071111
        k(   65) = (   0.0666667   0.1333333   0.2000000), wk =   0.0142222
        k(   66) = (   0.0666667   0.1333333   0.2666667), wk =   0.0284444
        k(   67) = (   0.0666667   0.1333333   0.3333333), wk =   0.0284444
        k(   68) = (   0.0666667   0.1333333   0.4000000), wk =   0.0284444
        k(   69) = (   0.0666667   0.1333333   0.4666667), wk =   0.0284444
        k(   70) = (   0.0666667   0.1333333  -0.4666667), wk =   0.0284444
        k(   71) = (   0.0666667   0.2000000   0.2666667), wk =   0.0142222
        k(   72) = (   0.0666667   0.2000000   0.3333333), wk =   0.0284444
        k(   73) = (   0.0666667   0.2000000   0.4000000), wk =   0.0284444
        k(   74) = (   0.0666667   0.2000000   0.4666667), wk =   0.0284444
        k(   75) = (   0.0666667   0.2000000  -0.4666667), wk =   0.0284444
        k(   76) = (   0.0666667   0.2000000  -0.4000000), wk =   0.0284444
        k(   77) = (   0.0666667   0.2000000  -0.3333333), wk =   0.0284444
        k(   78) = (   0.0666667   0.2000000  -0.2666667), wk =   0.0284444
        k(   79) = (   0.0666667   0.2000000  -0.2000000), wk =   0.0284444
        k(   80) = (   0.0666667   0.2000000  -0.1333333), wk =   0.0142222
        k(   81) = (   0.0666667   0.2666667   0.3333333), wk =   0.0142222
        k(   82) = (   0.0666667   0.2666667   0.4000000), wk =   0.0284444
        k(   83) = (   0.0666667   0.2666667   0.4666667), wk =   0.0284444
        k(   84) = (   0.0666667   0.2666667  -0.4666667), wk =   0.0284444
        k(   85) = (   0.0666667   0.2666667  -0.4000000), wk =   0.0284444
        k(   86) = (   0.0666667   0.2666667  -0.3333333), wk =   0.0284444
        k(   87) = (   0.0666667   0.2666667  -0.2666667), wk =   0.0284444
        k(   88) = (   0.0666667   0.2666667  -0.2000000), wk =   0.0142222
        k(   89) = (   0.0666667   0.3333333   0.4000000), wk =   0.0142222
        k(   90) = (   0.0666667   0.3333333   0.4666667), wk =   0.0284444
        k(   91) = (   0.0666667   0.3333333  -0.4666667), wk =   0.0284444
        k(   92) = (   0.0666667   0.3333333  -0.4000000), wk =   0.0284444
        k(   93) = (   0.0666667   0.3333333  -0.3333333), wk =   0.0284444
        k(   94) = (   0.0666667   0.3333333  -0.2666667), wk =   0.0142222
        k(   95) = (   0.0666667   0.4000000   0.4666667), wk =   0.0142222
        k(   96) = (   0.0666667   0.4000000  -0.4666667), wk =   0.0284444
        k(   97) = (   0.0666667   0.4000000  -0.4000000), wk =   0.0284444
        k(   98) = (   0.0666667   0.4000000  -0.3333333), wk =   0.0142222
        k(   99) = (   0.0666667   0.4666667  -0.4666667), wk =   0.0142222
        k(  100) = (   0.0666667   0.4666667  -0.4000000), wk =   0.0142222
        k(  101) = (   0.1333333   0.2666667   0.4000000), wk =   0.0142222
        k(  102) = (   0.1333333   0.2666667   0.4666667), wk =   0.0284444
        k(  103) = (   0.1333333   0.2666667  -0.4666667), wk =   0.0284444
        k(  104) = (   0.1333333   0.2666667  -0.4000000), wk =   0.0284444
        k(  105) = (   0.1333333   0.3333333   0.4666667), wk =   0.0142222
        k(  106) = (   0.1333333   0.3333333  -0.4666667), wk =   0.0284444
        k(  107) = (   0.1333333   0.3333333  -0.4000000), wk =   0.0284444
        k(  108) = (   0.1333333   0.3333333  -0.3333333), wk =   0.0284444
        k(  109) = (   0.1333333   0.3333333  -0.2666667), wk =   0.0284444
        k(  110) = (   0.1333333   0.3333333  -0.2000000), wk =   0.0142222
        k(  111) = (   0.1333333   0.4000000  -0.4666667), wk =   0.0142222
        k(  112) = (   0.1333333   0.4000000  -0.4000000), wk =   0.0284444
        k(  113) = (   0.1333333   0.4000000  -0.3333333), wk =   0.0284444
        k(  114) = (   0.1333333   0.4000000  -0.2666667), wk =   0.0142222
        k(  115) = (   0.1333333   0.4666667  -0.4000000), wk =   0.0142222
        k(  116) = (   0.1333333   0.4666667  -0.3333333), wk =   0.0142222
        k(  117) = (   0.2000000   0.4000000  -0.4000000), wk =   0.0142222
        k(  118) = (   0.2000000   0.4000000  -0.3333333), wk =   0.0284444
        k(  119) = (   0.2000000   0.4666667  -0.3333333), wk =   0.0142222
        k(  120) = (   0.2000000   0.4666667  -0.2666667), wk =   0.0142222

     Dense  grid:    13323 G-vectors     FFT dimensions: (  36,  36,  36)

     Dynamical RAM for                 wfc:       0.20 MB

     Dynamical RAM for     wfc (w. buffer):      24.34 MB

     Dynamical RAM for           str. fact:       0.20 MB

     Dynamical RAM for           local pot:       0.00 MB

     Dynamical RAM for          nlocal pot:       0.91 MB

     Dynamical RAM for                qrad:       1.87 MB

     Dynamical RAM for          rho,v,vnew:       1.68 MB

     Dynamical RAM for               rhoin:       0.56 MB

     Dynamical RAM for            rho*nmix:       3.25 MB

     Dynamical RAM for           G-vectors:       0.86 MB

     Dynamical RAM for          h,s,v(r/c):       0.05 MB

     Dynamical RAM for          <psi|beta>:       0.00 MB

     Dynamical RAM for                 psi:       0.80 MB

     Dynamical RAM for                hpsi:       0.80 MB

     Dynamical RAM for                spsi:       0.80 MB

     Dynamical RAM for      wfcinit/wfcrot:       0.40 MB

     Dynamical RAM for           addusdens:      38.22 MB

     Estimated static dynamical RAM per process >      35.86 MB

     Estimated max dynamical RAM per process >      74.08 MB

     Check: negative/imaginary core charge=   -0.000001    0.000000

     Initial potential from superposition of free atoms

     starting charge    7.99888, renormalised to    8.00000
     Starting wfcs are    8 randomized atomic wfcs

     total cpu time spent up to now is        2.1 secs

     Self-consistent Calculation

     iteration #  1     ecut=    50.00 Ry     beta= 0.70
     Davidson diagonalization with overlap
     ethr =  1.00E-02,  avg # of iterations =  3.9

     Threshold (ethr) on eigenvalues was too large:
     Diagonalizing with lowered threshold

     Davidson diagonalization with overlap
     ethr =  6.86E-04,  avg # of iterations =  1.2

     total cpu time spent up to now is        9.0 secs

     total energy              =     -22.83792771 Ry
     Harris-Foulkes estimate   =     -22.85074020 Ry
     estimated scf accuracy    <       0.05430400 Ry

     iteration #  2     ecut=    50.00 Ry     beta= 0.70
     Davidson diagonalization with overlap
     ethr =  6.79E-04,  avg # of iterations =  1.0

     total cpu time spent up to now is       11.9 secs

     total energy              =     -22.84006621 Ry
     Harris-Foulkes estimate   =     -22.84017710 Ry
     estimated scf accuracy    <       0.00215483 Ry

     iteration #  3     ecut=    50.00 Ry     beta= 0.70
     Davidson diagonalization with overlap
     ethr =  2.69E-05,  avg # of iterations =  2.7

     total cpu time spent up to now is       15.0 secs

     total energy              =     -22.84018643 Ry
     Harris-Foulkes estimate   =     -22.84018310 Ry
     estimated scf accuracy    <       0.00004228 Ry

     iteration #  4     ecut=    50.00 Ry     beta= 0.70
     Davidson diagonalization with overlap
     ethr =  5.28E-07,  avg # of iterations =  2.9

     total cpu time spent up to now is       18.6 secs

     total energy              =     -22.84019870 Ry
     Harris-Foulkes estimate   =     -22.84019861 Ry
     estimated scf accuracy    <       0.00000032 Ry

     iteration #  5     ecut=    50.00 Ry     beta= 0.70
     Davidson diagonalization with overlap
     ethr =  3.99E-09,  avg # of iterations =  2.5

     total cpu time spent up to now is       22.0 secs

     total energy              =     -22.84019886 Ry
     Harris-Foulkes estimate   =     -22.84019886 Ry
     estimated scf accuracy    <       0.00000002 Ry

     iteration #  6     ecut=    50.00 Ry     beta= 0.70
     Davidson diagonalization with overlap
     ethr =  2.70E-10,  avg # of iterations =  2.1

     total cpu time spent up to now is       25.1 secs

     End of self-consistent calculation

          k = 0.0000 0.0000 0.0000 (  1639 PWs)   bands (ev):

    -5.8346   5.9824   5.9824   5.9824   8.5366   8.5366   8.5366   9.1007

     occupation numbers 
     1.0000   1.0000   1.0000   1.0000   0.0000   0.0000   0.0000   0.0000

          k =-0.0667 0.0667-0.0667 (  1654 PWs)   bands (ev):

    -5.7774   5.3879   5.8891   5.8891   8.5708   8.6736   8.6736   9.5643

     occupation numbers 
     1.0000   1.0000   1.0000   1.0000   0.0000   0.0000   0.0000   0.0000

          k =-0.1333 0.1333-0.1333 (  1660 PWs)   bands (ev):

    -5.6068   4.2359   5.6682   5.6682   8.3911   8.9972   8.9972  10.6524

     occupation numbers 
     1.0000   1.0000   1.0000   1.0000   0.0000   0.0000   0.0000   0.0000

          k =-0.2000 0.2000-0.2000 (  1654 PWs)   bands (ev):

    -5.3269   2.9971   5.4136   5.4136   8.1302   9.3252   9.3252  11.8518

     occupation numbers 
     1.0000   1.0000   1.0000   1.0000   0.0000   0.0000   0.0000   0.0000

          k =-0.2667 0.2667-0.2667 (  1642 PWs)   bands (ev):

    -4.9464   1.8012   5.1816   5.1816   7.8774   9.4948   9.4948  12.9984

     occupation numbers 
     1.0000   1.0000   1.0000   1.0000   0.0000   0.0000   0.0000   0.0000

          k =-0.3333 0.3333-0.3333 (  1634 PWs)   bands (ev):

    -4.4853   0.7092   4.9979   4.9979   7.6707   9.4861   9.4861  13.7643

     occupation numbers 
     1.0000   1.0000   1.0000   1.0000   0.0000   0.0000   0.0000   0.0000

          k =-0.4000 0.4000-0.4000 (  1646 PWs)   bands (ev):

    -3.9945  -0.2095   4.8726   4.8726   7.5271   9.4040   9.4040  13.7913

     occupation numbers 
     1.0000   1.0000   1.0000   1.0000   0.0000   0.0000   0.0000   0.0000

          k =-0.4667 0.4667-0.4667 (  1664 PWs)   bands (ev):

    -3.6169  -0.8030   4.8095   4.8095   7.4541   9.3419   9.3419  13.7028

     occupation numbers 
     1.0000   1.0000   1.0000   1.0000   0.0000   0.0000   0.0000   0.0000

          k = 0.0000 0.1333 0.0000 (  1659 PWs)   bands (ev):

    -5.7582   5.4969   5.6957   5.6957   8.3585   8.9172   8.9172   9.5631

     occupation numbers 
     1.0000   1.0000   1.0000   1.0000   0.0000   0.0000   0.0000   0.0000

          k =-0.0667 0.2000-0.0667 (  1652 PWs)   bands (ev):

    -5.6253   4.5724   5.4225   5.5880   8.3564   8.9787   9.3119  10.3603

     occupation numbers 
     1.0000   1.0000   1.0000   1.0000   0.0000   0.0000   0.0000   0.0000

          k =-0.1333 0.2667-0.1333 (  1642 PWs)   bands (ev):

    -5.3813   3.3856   5.1516   5.3723   8.4323   8.9766   9.6958  11.2454

     occupation numbers 
     1.0000   1.0000   1.0000   1.0000   0.0000   0.0000   0.0000   0.0000

          k =-0.2000 0.3333-0.2000 (  1648 PWs)   bands (ev):

    -5.0331   2.1912   4.9267   5.1015   8.2877   9.1670   9.9089  11.7386

     occupation numbers 
     1.0000   1.0000   1.0000   1.0000   0.0000   0.0000   0.0000   0.0000

          k =-0.2667 0.4000-0.2667 (  1639 PWs)   bands (ev):

    -4.5957   1.0716   4.7673   4.8418   8.0944   9.2633   9.9002  12.3055

     occupation numbers 
     1.0000   1.0000   1.0000   1.0000   0.0000   0.0000   0.0000   0.0000

          k =-0.3333 0.4667-0.3333 (  1640 PWs)   bands (ev):

    -4.1054   0.0918   4.6235   4.6806   7.9391   9.2531   9.7661  13.1057

     occupation numbers 
     1.0000   1.0000   1.0000   1.0000   0.0000   0.0000   0.0000   0.0000

          k =-0.4000 0.5333-0.4000 (  1653 PWs)   bands (ev):

    -3.6638  -0.6332   4.4612   4.6677   7.8450   9.2428   9.6173  13.7489

     occupation numbers 
     1.0000   1.0000   1.0000   1.0000   0.0000   0.0000   0.0000   0.0000

          k = 0.5333-0.4000 0.5333 (  1662 PWs)   bands (ev):

    -3.5130  -0.8550   4.3635   4.7258   7.8201   9.2916   9.5141  13.8893

     occupation numbers 
     1.0000   1.0000   1.0000   1.0000   0.0000   0.0000   0.0000   0.0000

          k = 0.4667-0.3333 0.4667 (  1647 PWs)   bands (ev):

    -3.7945  -0.4308   4.3365   4.8495   7.8661   9.4099   9.4729  13.8588

     occupation numbers 
     1.0000   1.0000   1.0000   1.0000   0.0000   0.0000   0.0000   0.0000

          k = 0.4000-0.2667 0.4000 (  1645 PWs)   bands (ev):

    -4.2713   0.3995   4.3849   5.0312   7.9813   9.4690   9.5679  13.4471

     occupation numbers 
     1.0000   1.0000   1.0000   1.0000   0.0000   0.0000   0.0000   0.0000

          k = 0.3333-0.2000 0.3333 (  1646 PWs)   bands (ev):

    -4.7505   1.4339   4.5116   5.2594   8.1593   9.4274   9.6802  12.6899

     occupation numbers 
     1.0000   1.0000   1.0000   1.0000   0.0000   0.0000   0.0000   0.0000

          k = 0.2667-0.1333 0.2667 (  1642 PWs)   bands (ev):

    -5.1606   2.5817   4.7176   5.5142   8.3855   9.2483   9.5989  11.9500

     occupation numbers 
     1.0000   1.0000   1.0000   1.0000   0.0000   0.0000   0.0000   0.0000

          k = 0.2000-0.0667 0.2000 (  1648 PWs)   bands (ev):

    -5.4750   3.7688   5.0044   5.7557   8.6261   8.9455   9.2520  11.1319

     occupation numbers 
     1.0000   1.0000   1.0000   1.0000   0.0000   0.0000   0.0000   0.0000

          k = 0.1333 0.0000 0.1333 (  1651 PWs)   bands (ev):

    -5.6823   4.8244   5.4077   5.9095   8.6940   8.7914   8.8037  10.1942

     occupation numbers 
     1.0000   1.0000   1.0000   1.0000   0.0000   0.0000   0.0000   0.0000

          k = 0.0000 0.2667 0.0000 (  1647 PWs)   bands (ev):

    -5.5299   4.4899   5.1183   5.1183   7.9375   9.7737   9.7737  10.2376

     occupation numbers 
     1.0000   1.0000   1.0000   1.0000   0.0000   0.0000   0.0000   0.0000

          k =-0.0667 0.3333-0.0667 (  1652 PWs)   bands (ev):

    -5.3226   3.6157   4.8305   4.8997   7.9045   9.7850  10.2396  10.5847

     occupation numbers 
     1.0000   1.0000   1.0000   1.0000   0.0000   0.0000   0.0000   0.0000

          k =-0.1333 0.4000-0.1333 (  1649 PWs)   bands (ev):

    -5.0086   2.5246   4.5984   4.6141   8.0954   9.6983  10.5471  10.6380

     occupation numbers 
     1.0000   1.0000   1.0000   1.0000   0.0000   0.0000   0.0000   0.0000

          k =-0.2000 0.4667-0.2000 (  1646 PWs)   bands (ev):

    -4.5989   1.4346   4.2874   4.4407   8.1921   9.7149  10.5979  10.8496

     occupation numbers 
     1.0000   1.0000   1.0000   1.0000   0.0000   0.0000   0.0000   0.0000

          k =-0.2667 0.5333-0.2667 (  1649 PWs)   bands (ev):

    -4.1198   0.4346   3.9836   4.3651   8.1646   9.6577  10.4616  11.5489

     occupation numbers 
     1.0000   1.0000   1.0000   1.0000   0.0000   0.0000   0.0000   0.0000

          k =-0.3333 0.6000-0.3333 (  1646 PWs)   bands (ev):

    -3.6421  -0.3769   3.7338   4.3731   8.1339   9.5827  10.2652  12.5560

     occupation numbers 
     1.0000   1.0000   1.0000   1.0000   0.0000   0.0000   0.0000   0.0000

          k = 0.6000-0.3333 0.6000 (  1652 PWs)   bands (ev):

    -3.3605  -0.7920   3.5545   4.4619   8.1603   9.5612  10.0884  13.6585

     occupation numbers 
     1.0000   1.0000   1.0000   1.0000   0.0000   0.0000   0.0000   0.0000

          k = 0.5333-0.2667 0.5333 (  1638 PWs)   bands (ev):

    -3.5160  -0.5660   3.4570   4.6250   8.2568   9.6149   9.9606  14.0892

     occupation numbers 
     1.0000   1.0000   1.0000   1.0000   0.0000   0.0000   0.0000   0.0000

          k = 0.4667-0.2000 0.4667 (  1643 PWs)   bands (ev):

    -3.9604   0.1495   3.4511   4.8510   8.4153   9.7341   9.8685  13.2443

     occupation numbers 
     1.0000   1.0000   1.0000   1.0000   0.0000   0.0000   0.0000   0.0000

          k = 0.4000-0.1333 0.4000 (  1643 PWs)   bands (ev):

    -4.4502   1.0962   3.5498   5.1217   8.6173   9.7459   9.8520  12.3454

     occupation numbers 
     1.0000   1.0000   1.0000   1.0000   0.0000   0.0000   0.0000   0.0000

          k = 0.3333-0.0667 0.3333 (  1639 PWs)   bands (ev):

    -4.8861   2.1320   3.7816   5.4054   8.8326   9.4988   9.7764  11.7286

     occupation numbers 
     1.0000   1.0000   1.0000   1.0000   0.0000   0.0000   0.0000   0.0000

          k = 0.2667 0.0000 0.2667 (  1630 PWs)   bands (ev):

    -5.2325   3.0932   4.2364   5.6458   8.9584   9.1651   9.4026  11.4732

     occupation numbers 
     1.0000   1.0000   1.0000   1.0000   0.0000   0.0000   0.0000   0.0000

          k = 0.0000 0.4000 0.0000 (  1640 PWs)   bands (ev):

    -5.1519   3.3437   4.5260   4.5260   7.4582   9.8350  10.8226  10.8226

     occupation numbers 
     1.0000   1.0000   1.0000   1.0000   0.0000   0.0000   0.0000   0.0000

          k =-0.0667 0.4667-0.0667 (  1643 PWs)   bands (ev):

    -4.8729   2.5777   4.2174   4.2787   7.4496   9.4824  11.0935  11.2819

     occupation numbers 
     1.0000   1.0000   1.0000   1.0000   0.0000   0.0000   0.0000   0.0000

          k =-0.1333 0.5333-0.1333 (  1652 PWs)   bands (ev):

    -4.4938   1.6488   3.8142   4.1087   7.6620   9.4997  11.0090  11.4626

     occupation numbers 
     1.0000   1.0000   1.0000   1.0000   0.0000   0.0000   0.0000   0.0000

          k =-0.2000 0.6000-0.2000 (  1644 PWs)   bands (ev):

    -4.0336   0.7148   3.4029   4.0252   7.7701  10.0537  10.8417  11.3794

     occupation numbers 
     1.0000   1.0000   1.0000   1.0000   0.0000   0.0000   0.0000   0.0000

          k =-0.2667 0.6667-0.2667 (  1649 PWs)   bands (ev):

    -3.5411  -0.1144   3.0481   4.0310   7.8046  10.6832  11.0123  11.1746

     occupation numbers 
     1.0000   1.0000   1.0000   1.0000   0.0000   0.0000   0.0000   0.0000

          k = 0.6667-0.2667 0.6667 (  1651 PWs)   bands (ev):

    -3.1607  -0.6644   2.7782   4.1246   7.8816  10.5773  10.9550  12.1863

     occupation numbers 
     1.0000   1.0000   1.0000   1.0000   0.0000   0.0000   0.0000   0.0000

          k = 0.6000-0.2000 0.6000 (  1645 PWs)   bands (ev):

    -3.1731  -0.6433   2.6102   4.2999   8.0411  10.5294  10.7640  13.4777

     occupation numbers 
     1.0000   1.0000   1.0000   1.0000   0.0000   0.0000   0.0000   0.0000

          k = 0.5333-0.1333 0.5333 (  1647 PWs)   bands (ev):

    -3.5644  -0.0716   2.5633   4.5456   8.2806  10.5361  10.5898  13.1219

     occupation numbers 
     1.0000   1.0000   1.0000   1.0000   0.0000   0.0000   0.0000   0.0000

          k = 0.4667-0.0667 0.4667 (  1642 PWs)   bands (ev):

    -4.0557   0.7345   2.6764   4.8411   8.5693  10.3493  10.5329  12.1352

     occupation numbers 
     1.0000   1.0000   1.0000   1.0000   0.0000   0.0000   0.0000   0.0000

          k = 0.4000 0.0000 0.4000 (  1652 PWs)   bands (ev):

    -4.5117   1.5316   3.0467   5.1495   8.8302   9.9456  10.2545  11.6363

     occupation numbers 
     1.0000   1.0000   1.0000   1.0000   0.0000   0.0000   0.0000   0.0000

          k = 0.0000 0.5333 0.0000 (  1636 PWs)   bands (ev):

    -4.6284   2.1640   4.0128   4.0128   7.0389   8.8797  11.9619  11.9619

     occupation numbers 
     1.0000   1.0000   1.0000   1.0000   0.0000   0.0000   0.0000   0.0000

          k =-0.0667 0.6000-0.0667 (  1651 PWs)   bands (ev):

    -4.2814   1.4845   3.6651   3.8237   7.0817   8.5775  12.2396  12.3784

     occupation numbers 
     1.0000   1.0000   1.0000   1.0000   0.0000   0.0000   0.0000   0.0000

          k =-0.1333 0.6667-0.1333 (  1653 PWs)   bands (ev):

    -3.8452   0.7248   3.1563   3.7223   7.2924   8.7752  12.1742  12.4313

     occupation numbers 
     1.0000   1.0000   1.0000   1.0000   0.0000   0.0000   0.0000   0.0000

          k =-0.2000 0.7333-0.2000 (  1648 PWs)   bands (ev):

    -3.3535  -0.0165   2.6558   3.7131   7.3876   9.5406  12.0295  12.2624

     occupation numbers 
     1.0000   1.0000   1.0000   1.0000   0.0000   0.0000   0.0000   0.0000

          k = 0.7333-0.2000 0.7333 (  1649 PWs)   bands (ev):

    -2.9078  -0.6046   2.2554   3.7956   7.4808  10.6261  11.9073  12.0251

     occupation numbers 
     1.0000   1.0000   1.0000   1.0000   0.0000   0.0000   0.0000   0.0000

          k = 0.6667-0.1333 0.6667 (  1644 PWs)   bands (ev):

    -2.7819  -0.7519   1.9966   3.9653   7.6543  11.6060  11.7819  12.1086

     occupation numbers 
     1.0000   1.0000   1.0000   1.0000   0.0000   0.0000   0.0000   0.0000

          k = 0.6000-0.0667 0.6000 (  1644 PWs)   bands (ev):

    -3.1056  -0.3461   1.9210   4.2118   7.9189  11.5009  11.6446  13.0286

     occupation numbers 
     1.0000   1.0000   1.0000   1.0000   0.0000   0.0000   0.0000   0.0000

          k = 0.5333-0.0000 0.5333 (  1634 PWs)   bands (ev):

    -3.5886   0.2450   2.1129   4.5158   8.2501  11.0265  11.3727  12.2189

     occupation numbers 
     1.0000   1.0000   1.0000   1.0000   0.0000   0.0000   0.0000   0.0000

          k = 0.0000 0.6667 0.0000 (  1644 PWs)   bands (ev):

    -3.9658   0.9877   3.6125   3.6125   6.7417   8.0070  13.1539  13.1539

     occupation numbers 
     1.0000   1.0000   1.0000   1.0000   0.0000   0.0000   0.0000   0.0000

          k =-0.0667 0.7333-0.0667 (  1652 PWs)   bands (ev):

    -3.5563   0.3726   3.2688   3.4885   6.8451   7.8315  13.4547  13.5125

     occupation numbers 
     1.0000   1.0000   1.0000   1.0000   0.0000   0.0000   0.0000   0.0000

          k =-0.1333 0.8000-0.1333 (  1648 PWs)   bands (ev):

    -3.0758  -0.2494   2.7126   3.4576   7.0295   8.2679  13.4094  13.4627

     occupation numbers 
     1.0000   1.0000   1.0000   1.0000   0.0000   0.0000   0.0000   0.0000

          k = 0.8000-0.1333 0.8000 (  1651 PWs)   bands (ev):

    -2.5933  -0.7933   2.1738   3.5208   7.1354   9.2342  13.2354  13.2777

     occupation numbers 
     1.0000   1.0000   1.0000   1.0000   0.0000   0.0000   0.0000   0.0000

          k = 0.7333-0.0667 0.7333 (  1652 PWs)   bands (ev):

    -2.3622  -1.0227   1.7912   3.6746   7.3051  10.4527  12.9239  13.1505

     occupation numbers 
     1.0000   1.0000   1.0000   1.0000   0.0000   0.0000   0.0000   0.0000

          k = 0.6667-0.0000 0.6667 (  1652 PWs)   bands (ev):

    -2.6395  -0.7353   1.6695   3.9106   7.5717  11.7658  12.3873  12.9511

     occupation numbers 
     1.0000   1.0000   1.0000   1.0000   0.0000   0.0000   0.0000   0.0000

          k = 0.0000 0.8000 0.0000 (  1652 PWs)   bands (ev):

    -3.1729  -0.1592   3.3400   3.3400   6.6017   7.3347  14.3798  14.3798

     occupation numbers 
     1.0000   1.0000   1.0000   1.0000   0.0000   0.0000   0.0000   0.0000

          k =-0.0667 0.8667-0.0667 (  1646 PWs)   bands (ev):

    -2.7094  -0.7189   3.0312   3.2842   6.7580   7.3144  14.6730  14.6966

     occupation numbers 
     1.0000   1.0000   1.0000   1.0000   0.0000   0.0000   0.0000   0.0000

          k = 0.8667-0.0667 0.8667 (  1654 PWs)   bands (ev):

    -2.2112  -1.2274   2.4939   3.3234   6.8934   8.0132  14.5082  14.6679

     occupation numbers 
     1.0000   1.0000   1.0000   1.0000   0.0000   0.0000   0.0000   0.0000

          k = 0.8000 0.0000 0.8000 (  1650 PWs)   bands (ev):

    -1.9981  -1.3949   2.0107   3.4559   7.0482   9.1335  13.9744  14.5442

     occupation numbers 
     1.0000   1.0000   1.0000   1.0000   0.0000   0.0000   0.0000   0.0000

          k = 0.0000 0.9333 0.0000 (  1652 PWs)   bands (ev):

    -2.2623  -1.2507   3.2022   3.2022   6.6423   6.8819  15.5727  15.5727

     occupation numbers 
     1.0000   1.0000   1.0000   1.0000   0.0000   0.0000   0.0000   0.0000

          k = 0.9333 0.0000 0.9333 (  1656 PWs)   bands (ev):

    -1.7857  -1.7264   2.9522   3.2155   6.7714   7.0980  15.5453  15.6877

     occupation numbers 
     1.0000   1.0000   1.0000   1.0000   0.0000   0.0000   0.0000   0.0000

          k =-0.1333 0.2667 0.0000 (  1648 PWs)   bands (ev):

    -5.4553   3.9202   4.8260   5.5116   8.3427   9.2382   9.6367  10.8544

     occupation numbers 
     1.0000   1.0000   1.0000   1.0000   0.0000   0.0000   0.0000   0.0000

          k =-0.2000 0.3333-0.0667 (  1644 PWs)   bands (ev):

    -5.1763   2.9090   4.3886   5.3331   8.5272   9.2305  10.0272  11.0916

     occupation numbers 
     1.0000   1.0000   1.0000   1.0000   0.0000   0.0000   0.0000   0.0000

          k =-0.2667 0.4000-0.1333 (  1645 PWs)   bands (ev):

    -4.7968   1.8020   4.1142   5.0801   8.5597   9.2847  10.2242  11.3293

     occupation numbers 
     1.0000   1.0000   1.0000   1.0000   0.0000   0.0000   0.0000   0.0000

          k =-0.3333 0.4667-0.2000 (  1641 PWs)   bands (ev):

    -4.3364   0.7519   3.9379   4.8333   8.4495   9.2937  10.2007  11.9460

     occupation numbers 
     1.0000   1.0000   1.0000   1.0000   0.0000   0.0000   0.0000   0.0000

          k =-0.4000 0.5333-0.2667 (  1646 PWs)   bands (ev):

    -3.8452  -0.1466   3.8370   4.6405   8.3421   9.2236  10.1036  12.8611

     occupation numbers 
     1.0000   1.0000   1.0000   1.0000   0.0000   0.0000   0.0000   0.0000

          k = 0.5333-0.4000 0.6667 (  1647 PWs)   bands (ev):

    -3.4651  -0.7337   3.7935   4.5340   8.2831   9.1664  10.0336  13.8170

     occupation numbers 
     1.0000   1.0000   1.0000   1.0000   0.0000   0.0000   0.0000   0.0000

          k =-0.1333 0.4000 0.0000 (  1649 PWs)   bands (ev):

    -5.0798   2.9541   4.2312   4.8197   7.8825   9.8495  10.5173  10.7189

     occupation numbers 
     1.0000   1.0000   1.0000   1.0000   0.0000   0.0000   0.0000   0.0000

          k =-0.2000 0.4667-0.0667 (  1652 PWs)   bands (ev):

    -4.7332   2.0454   3.7927   4.6196   8.1152   9.8383  10.3702  11.0892

     occupation numbers 
     1.0000   1.0000   1.0000   1.0000   0.0000   0.0000   0.0000   0.0000

          k =-0.2667 0.5333-0.1333 (  1640 PWs)   bands (ev):

    -4.2972   1.0671   3.4963   4.3871   8.2676   9.9530  10.4586  11.1911

     occupation numbers 
     1.0000   1.0000   1.0000   1.0000   0.0000   0.0000   0.0000   0.0000

          k =-0.3333 0.6000-0.2000 (  1641 PWs)   bands (ev):

    -3.8069   0.1595   3.2773   4.2194   8.3015   9.7736  11.0690  11.3193

     occupation numbers 
     1.0000   1.0000   1.0000   1.0000   0.0000   0.0000   0.0000   0.0000

          k = 0.6000-0.3333 0.7333 (  1646 PWs)   bands (ev):

    -3.3621  -0.5330   3.1098   4.1620   8.3434   9.5856  10.9945  12.3909

     occupation numbers 
     1.0000   1.0000   1.0000   1.0000   0.0000   0.0000   0.0000   0.0000

          k = 0.5333-0.2667 0.6667 (  1653 PWs)   bands (ev):

    -3.2114  -0.7442   2.9970   4.2218   8.4489   9.4546  10.9226  13.6152

     occupation numbers 
     1.0000   1.0000   1.0000   1.0000   0.0000   0.0000   0.0000   0.0000

          k = 0.4667-0.2000 0.6000 (  1641 PWs)   bands (ev):

    -3.5010  -0.3251   2.9572   4.3842   8.6216   9.3929  10.8918  12.7343

     occupation numbers 
     1.0000   1.0000   1.0000   1.0000   0.0000   0.0000   0.0000   0.0000

          k = 0.4000-0.1333 0.5333 (  1648 PWs)   bands (ev):

    -3.9805   0.4616   3.0153   4.6244   8.8351   9.3764  10.8647  11.7339

     occupation numbers 
     1.0000   1.0000   1.0000   1.0000   0.0000   0.0000   0.0000   0.0000

          k = 0.3333-0.0667 0.4667 (  1649 PWs)   bands (ev):

    -4.4578   1.3826   3.2116   4.9076   9.0200   9.3041  10.7515  11.0684

     occupation numbers 
     1.0000   1.0000   1.0000   1.0000   0.0000   0.0000   0.0000   0.0000

          k = 0.2667 0.0000 0.4000 (  1644 PWs)   bands (ev):

    -4.8648   2.2571   3.6391   5.1755   8.8571   9.2894  10.4550  10.8827

     occupation numbers 
     1.0000   1.0000   1.0000   1.0000   0.0000   0.0000   0.0000   0.0000

          k =-0.1333 0.5333 0.0000 (  1648 PWs)   bands (ev):

    -4.5603   1.9366   3.7212   4.1513   7.4731   9.1424  11.2605  11.8954

     occupation numbers 
     1.0000   1.0000   1.0000   1.0000   0.0000   0.0000   0.0000   0.0000

          k =-0.2000 0.6000-0.0667 (  1654 PWs)   bands (ev):

    -4.1526   1.1564   3.2725   3.9460   7.7368   9.1939  11.1087  12.2435

     occupation numbers 
     1.0000   1.0000   1.0000   1.0000   0.0000   0.0000   0.0000   0.0000

          k =-0.2667 0.6667-0.1333 (  1649 PWs)   bands (ev):

    -3.6742   0.3463   2.8821   3.7977   7.8806   9.8134  10.8778  12.2719

     occupation numbers 
     1.0000   1.0000   1.0000   1.0000   0.0000   0.0000   0.0000   0.0000

          k = 0.6667-0.2667 0.8000 (  1646 PWs)   bands (ev):

    -3.1934  -0.3619   2.5589   3.7667   7.9595  10.5683  10.9096  12.1732

     occupation numbers 
     1.0000   1.0000   1.0000   1.0000   0.0000   0.0000   0.0000   0.0000

          k = 0.6000-0.2000 0.7333 (  1651 PWs)   bands (ev):

    -2.9124  -0.7310   2.3267   3.8521   8.0932  10.4162  12.0216  12.1303

     occupation numbers 
     1.0000   1.0000   1.0000   1.0000   0.0000   0.0000   0.0000   0.0000

          k = 0.5333-0.1333 0.6667 (  1646 PWs)   bands (ev):

    -3.0890  -0.4959   2.2132   4.0385   8.3111  10.2693  11.9397  12.6932

     occupation numbers 
     1.0000   1.0000   1.0000   1.0000   0.0000   0.0000   0.0000   0.0000

          k = 0.4667-0.0667 0.6000 (  1645 PWs)   bands (ev):

    -3.5433   0.1361   2.2622   4.3038   8.6024  10.1182  11.5539  11.9052

     occupation numbers 
     1.0000   1.0000   1.0000   1.0000   0.0000   0.0000   0.0000   0.0000

          k = 0.4000 0.0000 0.5333 (  1647 PWs)   bands (ev):

    -4.0295   0.8304   2.5628   4.6140   8.9212   9.7555  11.0169  11.4737

     occupation numbers 
     1.0000   1.0000   1.0000   1.0000   0.0000   0.0000   0.0000   0.0000

          k =-0.1333 0.6667-0.0000 (  1658 PWs)   bands (ev):

    -3.9040   0.8769   3.3321   3.6147   7.1764   8.3161  12.3127  13.1222

     occupation numbers 
     1.0000   1.0000   1.0000   1.0000   0.0000   0.0000   0.0000   0.0000

          k =-0.2000 0.7333-0.0667 (  1650 PWs)   bands (ev):

    -3.4451   0.2199   2.8589   3.4525   7.4555   8.5532  12.1230  13.4597

     occupation numbers 
     1.0000   1.0000   1.0000   1.0000   0.0000   0.0000   0.0000   0.0000

          k = 0.7333-0.2000 0.8667 (  1655 PWs)   bands (ev):

    -2.9502  -0.4076   2.3658   3.4244   7.5832   9.3955  11.8816  13.4497

     occupation numbers 
     1.0000   1.0000   1.0000   1.0000   0.0000   0.0000   0.0000   0.0000

          k = 0.6667-0.1333 0.8000 (  1645 PWs)   bands (ev):

    -2.5716  -0.8398   1.9825   3.5136   7.7197  10.5352  11.6703  13.3074

     occupation numbers 
     1.0000   1.0000   1.0000   1.0000   0.0000   0.0000   0.0000   0.0000

          k = 0.6000-0.0667 0.7333 (  1644 PWs)   bands (ev):

    -2.6364  -0.7588   1.7817   3.7042   7.9411  11.3101  11.9904  12.7104

     occupation numbers 
     1.0000   1.0000   1.0000   1.0000   0.0000   0.0000   0.0000   0.0000

          k = 0.5333-0.0000 0.6667 (  1651 PWs)   bands (ev):

    -3.0597  -0.3038   1.8434   3.9777   8.2478  10.9659  11.8174  12.6998

     occupation numbers 
     1.0000   1.0000   1.0000   1.0000   0.0000   0.0000   0.0000   0.0000

          k =-0.1333 0.8000 0.0000 (  1650 PWs)   bands (ev):

    -3.1212  -0.1956   3.0809   3.2394   7.0278   7.6831  13.4287  14.3739

     occupation numbers 
     1.0000   1.0000   1.0000   1.0000   0.0000   0.0000   0.0000   0.0000

          k = 0.8000-0.1333 0.9333 (  1657 PWs)   bands (ev):

    -2.6276  -0.7486   2.5908   3.1675   7.2893   8.1519  13.2146  14.6721

     occupation numbers 
     1.0000   1.0000   1.0000   1.0000   0.0000   0.0000   0.0000   0.0000

          k = 0.7333-0.0667 0.8667 (  1650 PWs)   bands (ev):

    -2.1875  -1.1811   2.0795   3.2480   7.4253   9.1905  12.9631  14.1395

     occupation numbers 
     1.0000   1.0000   1.0000   1.0000   0.0000   0.0000   0.0000   0.0000

          k = 0.6667 0.0000 0.8000 (  1651 PWs)   bands (ev):

    -2.2194  -1.1242   1.7618   3.4322   7.6362  10.4550  12.5586  13.0328

     occupation numbers 
     1.0000   1.0000   1.0000   1.0000   0.0000   0.0000   0.0000   0.0000

          k = 0.8667-0.0667 1.0000 (  1649 PWs)   bands (ev):

    -2.2269  -1.2422   2.9773   3.0283   7.0508   7.2641  14.5910  15.4327

     occupation numbers 
     1.0000   1.0000   1.0000   1.0000   0.0000   0.0000   0.0000   0.0000

          k = 0.8000 0.0000 0.9333 (  1650 PWs)   bands (ev):

    -1.8101  -1.6199   2.4984   3.0754   7.2358   8.0150  14.2811  14.4637

     occupation numbers 
     1.0000   1.0000   1.0000   1.0000   0.0000   0.0000   0.0000   0.0000

          k =-0.2667 0.5333 0.0000 (  1653 PWs)   bands (ev):

    -4.3582   1.4242   3.1374   4.4189   8.4822   9.8199  10.1182  11.7150

     occupation numbers 
     1.0000   1.0000   1.0000   1.0000   0.0000   0.0000   0.0000   0.0000

          k =-0.3333 0.6000-0.0667 (  1640 PWs)   bands (ev):

    -3.9015   0.6606   2.7430   4.1436   8.8025   9.7714  10.2568  12.0742

     occupation numbers 
     1.0000   1.0000   1.0000   1.0000   0.0000   0.0000   0.0000   0.0000

          k = 0.6000-0.3333 0.8667 (  1645 PWs)   bands (ev):

    -3.4093  -0.1027   2.5445   3.9073   8.9307   9.4794  11.1506  12.1574

     occupation numbers 
     1.0000   1.0000   1.0000   1.0000   0.0000   0.0000   0.0000   0.0000

          k = 0.5333-0.2667 0.8000 (  1654 PWs)   bands (ev):

    -3.0196  -0.6447   2.4641   3.7736   9.0445   9.2337  12.1251  12.3415

     occupation numbers 
     1.0000   1.0000   1.0000   1.0000   0.0000   0.0000   0.0000   0.0000

          k =-0.2667 0.6667 0.0000 (  1651 PWs)   bands (ev):

    -3.7224   0.5722   2.7719   3.6718   8.1995   9.1522  10.8757  13.0303

     occupation numbers 
     1.0000   1.0000   1.0000   1.0000   0.0000   0.0000   0.0000   0.0000

          k = 0.6667-0.2667 0.9333 (  1653 PWs)   bands (ev):

    -3.2339  -0.0663   2.4027   3.4215   8.5217   9.6951  10.6007  13.3981

     occupation numbers 
     1.0000   1.0000   1.0000   1.0000   0.0000   0.0000   0.0000   0.0000

          k = 0.6000-0.2000 0.8667 (  1650 PWs)   bands (ev):

    -2.7799  -0.6243   2.1491   3.3061   8.6653  10.2304  10.8588  13.4406

     occupation numbers 
     1.0000   1.0000   1.0000   1.0000   0.0000   0.0000   0.0000   0.0000

          k = 0.5333-0.1333 0.8000 (  1646 PWs)   bands (ev):

    -2.6312  -0.7954   2.0071   3.3507   8.8492  10.0486  12.0240  12.4610

     occupation numbers 
     1.0000   1.0000   1.0000   1.0000   0.0000   0.0000   0.0000   0.0000

          k = 0.4667-0.0667 0.7333 (  1646 PWs)   bands (ev):

    -2.9489  -0.4200   2.0117   3.5353   9.1107   9.8678  11.1486  13.2823

     occupation numbers 
     1.0000   1.0000   1.0000   1.0000   0.0000   0.0000   0.0000   0.0000

          k = 0.4000 0.0000 0.6667 (  1649 PWs)   bands (ev):

    -3.4332   0.1503   2.2336   3.8207   9.4359   9.5078  10.3713  12.8907

     occupation numbers 
     1.0000   1.0000   1.0000   1.0000   0.0000   0.0000   0.0000   0.0000

          k = 0.7333-0.2000 1.0000 (  1654 PWs)   bands (ev):

    -2.9724  -0.3174   2.5649   3.0807   8.0473   8.5891  11.8511  14.3522

     occupation numbers 
     1.0000   1.0000   1.0000   1.0000   0.0000   0.0000   0.0000   0.0000

          k = 0.6667-0.1333 0.9333 (  1655 PWs)   bands (ev):

    -2.4847  -0.8280   2.2022   2.9232   8.3406   9.3677  11.5738  13.8932

     occupation numbers 
     1.0000   1.0000   1.0000   1.0000   0.0000   0.0000   0.0000   0.0000

          k = 0.6000-0.0667 0.8667 (  1647 PWs)   bands (ev):

    -2.2141  -1.0910   1.8940   2.9937   8.5204  10.5210  11.3751  12.5110

     occupation numbers 
     1.0000   1.0000   1.0000   1.0000   0.0000   0.0000   0.0000   0.0000

          k = 0.5333 0.0000 0.8000 (  1649 PWs)   bands (ev):

    -2.4801  -0.8236   1.7980   3.2123   8.7778  10.8166  11.3943  12.1012

     occupation numbers 
     1.0000   1.0000   1.0000   1.0000   0.0000   0.0000   0.0000   0.0000

          k = 0.7333-0.0667 1.0000 (  1651 PWs)   bands (ev):

    -2.1311  -1.2318   2.5350   2.7012   8.0497   8.2251  12.9389  14.1165

     occupation numbers 
     1.0000   1.0000   1.0000   1.0000   0.0000   0.0000   0.0000   0.0000

          k = 0.6667 0.0000 0.9333 (  1646 PWs)   bands (ev):

    -1.8340  -1.4800   2.1380   2.7461   8.2785   9.2588  12.6080  12.7610

     occupation numbers 
     1.0000   1.0000   1.0000   1.0000   0.0000   0.0000   0.0000   0.0000

          k = 0.6000-0.2000 1.0000 (  1649 PWs)   bands (ev):

    -2.7466  -0.5364   2.0909   3.0580   9.3664   9.7672  10.3513  13.6847

     occupation numbers 
     1.0000   1.0000   1.0000   1.0000   0.0000   0.0000   0.0000   0.0000

          k = 0.5333-0.1333 0.9333 (  1644 PWs)   bands (ev):

    -2.3256  -0.9577   1.9533   2.8419   9.6376   9.9580  10.8942  12.2561

     occupation numbers 
     1.0000   1.0000   1.0000   1.0000   0.0000   0.0000   0.0000   0.0000

          k = 0.6000-0.0667 1.0000 (  1643 PWs)   bands (ev):

    -2.0060  -1.2567   2.1654   2.4862   9.3589   9.4999  11.2946  12.4292

     occupation numbers 
     1.0000   1.0000   1.0000   1.0000   0.0000   0.0000   0.0000   0.0000

          k = 0.5333-0.0000 0.9333 (  1640 PWs)   bands (ev):

    -1.8963  -1.3442   2.0149   2.5051   9.6099  10.5004  11.1400  11.1880

     occupation numbers 
     1.0000   1.0000   1.0000   1.0000   0.0000   0.0000   0.0000   0.0000

     the Fermi energy is     6.2751 ev

!    total energy              =     -22.84019887 Ry
     Harris-Foulkes estimate   =     -22.84019887 Ry
     estimated scf accuracy    <          5.3E-11 Ry

     The total energy is the sum of the following terms:

     one-electron contribution =       5.00222917 Ry
     hartree contribution      =       1.11915122 Ry
     xc contribution           =     -12.28308218 Ry
     ewald contribution        =     -16.67849708 Ry
     smearing contrib. (-TS)   =      -0.00000000 Ry

     convergence has been achieved in   6 iterations

     Writing output data file Si.Fd-3m.save/
 
     init_run     :      1.51s CPU      1.59s WALL (       1 calls)
     electrons    :     22.72s CPU     23.08s WALL (       1 calls)

     Called by init_run:
     wfcinit      :      0.96s CPU      0.99s WALL (       1 calls)
     wfcinit:atom :      0.03s CPU      0.03s WALL (     120 calls)
     wfcinit:wfcr :      0.83s CPU      0.86s WALL (     120 calls)
     potinit      :      0.13s CPU      0.13s WALL (       1 calls)
     hinit0       :      0.39s CPU      0.41s WALL (       1 calls)

     Called by electrons:
     c_bands      :     18.39s CPU     18.59s WALL (       7 calls)
     sum_band     :      3.44s CPU      3.50s WALL (       7 calls)
     v_of_rho     :      0.87s CPU      0.88s WALL (       7 calls)
     v_h          :      0.00s CPU      0.00s WALL (       7 calls)
     v_xc         :      0.86s CPU      0.87s WALL (       7 calls)
     newd         :      0.15s CPU      0.23s WALL (       7 calls)
     mix_rho      :      0.01s CPU      0.03s WALL (       7 calls)

     Called by c_bands:
     init_us_2    :      0.85s CPU      0.86s WALL (    1800 calls)
     cegterg      :     15.43s CPU     15.56s WALL (     840 calls)

     Called by sum_band:
     sum_band:bec :      0.01s CPU      0.01s WALL (     840 calls)
     addusdens    :      0.14s CPU      0.17s WALL (       7 calls)

     Called by *egterg:
     h_psi        :     14.73s CPU     14.84s WALL (    2919 calls)
     s_psi        :      0.36s CPU      0.36s WALL (    2919 calls)
     g_psi        :      0.11s CPU      0.11s WALL (    1959 calls)
     cdiaghg      :      0.28s CPU      0.30s WALL (    2679 calls)
     cegterg:over :      0.25s CPU      0.25s WALL (    1959 calls)
     cegterg:upda :      0.19s CPU      0.19s WALL (    1959 calls)
     cegterg:last :      0.07s CPU      0.07s WALL (     840 calls)

     Called by h_psi:
     h_psi:pot    :     14.68s CPU     14.78s WALL (    2919 calls)
     h_psi:calbec :      0.36s CPU      0.37s WALL (    2919 calls)
     vloc_psi     :     13.92s CPU     14.01s WALL (    2919 calls)
     add_vuspsi   :      0.38s CPU      0.39s WALL (    2919 calls)

     General routines
     calbec       :      0.47s CPU      0.47s WALL (    3759 calls)
     fft          :      0.03s CPU      0.04s WALL (      79 calls)
     ffts         :      0.00s CPU      0.00s WALL (       7 calls)
     fftw         :     14.69s CPU     14.77s WALL (   42236 calls)
 
 
     PWSCF        :    24.66s CPU        25.66s WALL

 
   This run was terminated on:  20:58:57  13Jul2020            

=------------------------------------------------------------------------------=
   JOB DONE.
=------------------------------------------------------------------------------=
