
     Program PWSCF v.6.2 (svn rev. 14038) starts on 31Mar2018 at  9:28:41 

     This program is part of the open-source Quantum ESPRESSO suite
     for quantum simulation of materials; please cite
         "P. Giannozzi et al., J. Phys.:Condens. Matter 21 395502 (2009);
         "P. Giannozzi et al., J. Phys.:Condens. Matter 29 465901 (2017);
          URL http://www.quantum-espresso.org", 
     in publications or presentations arising from this work. More details at
     http://www.quantum-espresso.org/quote

     Parallel version (MPI), running on     3 processors

     MPI processes distributed on     1 nodes
     K-points division:     npool     =       3
     Reading input from Si.1_ML.scf.in

     Current dimensions of program PWSCF are:
     Max number of different atomic species (ntypx) = 10
     Max number of k-points (npk) =  40000
     Max angular momentum in pseudopotentials (lmaxx) =  3

     Subspace diagonalization in iterative solution of the eigenvalue problem:
     a serial algorithm will be used


     G-vector sticks info
     --------------------
     sticks:   dense  smooth     PW     G-vecs:    dense   smooth      PW
     Sum        4249    1701    481               541855   137085   20513



     bravais-lattice index     =            6
     lattice parameter (alat)  =      10.3355  a.u.
     unit-cell volume          =    2870.5396 (a.u.)^3
     number of atoms/cell      =            8
     number of atomic types    =            1
     number of electrons       =        32.00
     number of Kohn-Sham states=           20
     kinetic-energy cutoff     =      50.0000  Ry
     charge density cutoff     =     500.0000  Ry
     convergence threshold     =      1.0E-10
     mixing beta               =       0.5000
     number of iterations used =            8  local-TF  mixing
     Exchange-correlation      = PBE ( 1  4  3  4 0 0)
     nstep                     =          200


     celldm(1)=  10.335466  celldm(2)=   0.000000  celldm(3)=   2.600000
     celldm(4)=   0.000000  celldm(5)=   0.000000  celldm(6)=   0.000000

     crystal axes: (cart. coord. in units of alat)
               a(1) = (   1.000000   0.000000   0.000000 )  
               a(2) = (   0.000000   1.000000   0.000000 )  
               a(3) = (   0.000000   0.000000   2.600000 )  

     reciprocal axes: (cart. coord. in units 2 pi/alat)
               b(1) = (  1.000000  0.000000  0.000000 )  
               b(2) = (  0.000000  1.000000  0.000000 )  
               b(3) = (  0.000000  0.000000  0.384615 )  


     PseudoPot. # 1 for Si read from file:
     /Users/williamparker/src/pslibrary.1.0.0/pbe/PSEUDOPOTENTIALS/Si.pbe-n-rrkjus_psl.1.0.0.UPF
     MD5 check sum: 43033f30c245c7e4bcc26f9d0f6849e4
     Pseudo is Ultrasoft + core correction, Zval =  4.0
     Generated using "atomic" code by A. Dal Corso v.6.1
     Using radial grid of 1141 points,  6 beta functions with: 
                l(1) =   0
                l(2) =   0
                l(3) =   1
                l(4) =   1
                l(5) =   2
                l(6) =   2
     Q(r) pseudized with 0 coefficients 


     atomic species   valence    mass     pseudopotential
        Si             4.00    28.08600     Si( 1.00)

      2 Sym. Ops. (no inversion) found



   Cartesian axes

     site n.     atom                  positions (alat units)
         1           Si  tau(   1) = (   0.0746337   0.0746337   0.2792390  )
         2           Si  tau(   2) = (  -0.0896328   0.4269232   0.4788728  )
         3           Si  tau(   3) = (   0.4269232  -0.0896328   0.4788728  )
         4           Si  tau(   4) = (   0.5715609   0.5715609  -0.0912995  )
         5           Si  tau(   5) = (   0.3826075   0.3826075   0.2396837  )
         6           Si  tau(   6) = (   0.2667864   0.5618866   0.6709050  )
         7           Si  tau(   7) = (   0.5618866   0.2667864   0.6709050  )
         8           Si  tau(   8) = (   0.7686764   0.7686764   0.2362632  )

     number of k points=    21
                       cart. coord. in units 2pi/alat
        k(    1) = (   0.0000000   0.0000000   0.0000000), wk =   0.0312500
        k(    2) = (   0.0000000   0.1250000   0.0000000), wk =   0.1250000
        k(    3) = (   0.0000000   0.2500000   0.0000000), wk =   0.1250000
        k(    4) = (   0.0000000   0.3750000   0.0000000), wk =   0.1250000
        k(    5) = (   0.0000000  -0.5000000   0.0000000), wk =   0.0625000
        k(    6) = (   0.1250000   0.1250000   0.0000000), wk =   0.0625000
        k(    7) = (   0.1250000   0.2500000   0.0000000), wk =   0.1250000
        k(    8) = (   0.1250000   0.3750000   0.0000000), wk =   0.1250000
        k(    9) = (   0.1250000  -0.5000000   0.0000000), wk =   0.1250000
        k(   10) = (   0.2500000   0.2500000   0.0000000), wk =   0.0625000
        k(   11) = (   0.2500000   0.3750000   0.0000000), wk =   0.1250000
        k(   12) = (   0.2500000  -0.5000000   0.0000000), wk =   0.1250000
        k(   13) = (   0.3750000   0.3750000   0.0000000), wk =   0.0625000
        k(   14) = (   0.3750000  -0.5000000   0.0000000), wk =   0.1250000
        k(   15) = (  -0.5000000  -0.5000000   0.0000000), wk =   0.0312500
        k(   16) = (  -0.1250000   0.1250000   0.0000000), wk =   0.0625000
        k(   17) = (  -0.1250000   0.2500000   0.0000000), wk =   0.1250000
        k(   18) = (  -0.1250000   0.3750000   0.0000000), wk =   0.1250000
        k(   19) = (  -0.2500000   0.2500000   0.0000000), wk =   0.0625000
        k(   20) = (  -0.2500000   0.3750000   0.0000000), wk =   0.1250000
        k(   21) = (  -0.3750000   0.3750000   0.0000000), wk =   0.0625000

     Dense  grid:   541855 G-vectors     FFT dimensions: (  75,  75, 192)

     Smooth grid:   137085 G-vectors     FFT dimensions: (  48,  48, 125)

     Estimated max dynamical RAM per process >       2.05 GB

     Estimated total dynamical RAM >       6.16 GB

     Initial potential from superposition of free atoms

     starting charge   31.99553, renormalised to   32.00000

     negative rho (up, down):  1.710E-06 0.000E+00
     Starting wfc are   32 randomized atomic wfcs

     total cpu time spent up to now is        0.0 secs

     Self-consistent Calculation

     iteration #  1     ecut=    50.00 Ry     beta= 0.50
     CG style diagonalization
     ethr =  1.00E-02,  avg # of iterations =  3.0

     total cpu time spent up to now is        0.0 secs

     total energy              =     -90.99722361 Ry
     Harris-Foulkes estimate   =     -91.04401217 Ry
     estimated scf accuracy    <       0.33885602 Ry

     iteration #  2     ecut=    50.00 Ry     beta= 0.50
     CG style diagonalization
     ethr =  1.06E-03,  avg # of iterations =  3.2

     total cpu time spent up to now is        0.0 secs

     total energy              =     -90.94763598 Ry
     Harris-Foulkes estimate   =     -91.02639000 Ry
     estimated scf accuracy    <       0.21923643 Ry

     iteration #  3     ecut=    50.00 Ry     beta= 0.50
     CG style diagonalization
     ethr =  6.85E-04,  avg # of iterations =  3.2

     total cpu time spent up to now is        0.0 secs

     total energy              =     -90.97742885 Ry
     Harris-Foulkes estimate   =     -90.97892296 Ry
     estimated scf accuracy    <       0.01951117 Ry

     iteration #  4     ecut=    50.00 Ry     beta= 0.50
     CG style diagonalization
     ethr =  6.10E-05,  avg # of iterations =  4.6

     total cpu time spent up to now is        0.0 secs

     total energy              =     -90.98155565 Ry
     Harris-Foulkes estimate   =     -90.98338155 Ry
     estimated scf accuracy    <       0.01019789 Ry

     iteration #  5     ecut=    50.00 Ry     beta= 0.50
     CG style diagonalization
     ethr =  3.19E-05,  avg # of iterations =  3.1

     total cpu time spent up to now is        0.0 secs

     total energy              =     -90.98025223 Ry
     Harris-Foulkes estimate   =     -90.98241435 Ry
     estimated scf accuracy    <       0.00692852 Ry

     iteration #  6     ecut=    50.00 Ry     beta= 0.50
     CG style diagonalization
     ethr =  2.17E-05,  avg # of iterations =  3.2

     total cpu time spent up to now is        0.0 secs

     total energy              =     -90.97962297 Ry
     Harris-Foulkes estimate   =     -90.98078668 Ry
     estimated scf accuracy    <       0.00422630 Ry

     iteration #  7     ecut=    50.00 Ry     beta= 0.50
     CG style diagonalization
     ethr =  1.32E-05,  avg # of iterations =  3.6

     total cpu time spent up to now is        0.0 secs

     total energy              =     -90.98061231 Ry
     Harris-Foulkes estimate   =     -90.98057823 Ry
     estimated scf accuracy    <       0.00069601 Ry

     iteration #  8     ecut=    50.00 Ry     beta= 0.50
     CG style diagonalization
     ethr =  2.18E-06,  avg # of iterations =  4.9

     total cpu time spent up to now is        0.0 secs

     total energy              =     -90.98072603 Ry
     Harris-Foulkes estimate   =     -90.98081027 Ry
     estimated scf accuracy    <       0.00064225 Ry

     iteration #  9     ecut=    50.00 Ry     beta= 0.50
     CG style diagonalization
     ethr =  2.01E-06,  avg # of iterations =  3.0

     total cpu time spent up to now is        0.0 secs

     total energy              =     -90.98085153 Ry
     Harris-Foulkes estimate   =     -90.98079922 Ry
     estimated scf accuracy    <       0.00004844 Ry

     iteration # 10     ecut=    50.00 Ry     beta= 0.50
     CG style diagonalization
     ethr =  1.51E-07,  avg # of iterations =  4.6

     total cpu time spent up to now is        0.0 secs

     total energy              =     -90.98088579 Ry
     Harris-Foulkes estimate   =     -90.98089514 Ry
     estimated scf accuracy    <       0.00004943 Ry

     iteration # 11     ecut=    50.00 Ry     beta= 0.50
     CG style diagonalization
     ethr =  1.51E-07,  avg # of iterations =  3.0

     negative rho (up, down):  5.486E-06 0.000E+00

     total cpu time spent up to now is        0.0 secs

     total energy              =     -90.98088281 Ry
     Harris-Foulkes estimate   =     -90.98088782 Ry
     estimated scf accuracy    <       0.00001815 Ry

     iteration # 12     ecut=    50.00 Ry     beta= 0.50
     CG style diagonalization
     ethr =  5.67E-08,  avg # of iterations =  3.7

     negative rho (up, down):  4.802E-07 0.000E+00

     total cpu time spent up to now is        0.0 secs

     total energy              =     -90.98088783 Ry
     Harris-Foulkes estimate   =     -90.98088815 Ry
     estimated scf accuracy    <       0.00000126 Ry

     iteration # 13     ecut=    50.00 Ry     beta= 0.50
     CG style diagonalization
     ethr =  3.95E-09,  avg # of iterations =  4.1

     negative rho (up, down):  1.280E-07 0.000E+00

     total cpu time spent up to now is        0.0 secs

     total energy              =     -90.98088822 Ry
     Harris-Foulkes estimate   =     -90.98088830 Ry
     estimated scf accuracy    <       0.00000028 Ry

     iteration # 14     ecut=    50.00 Ry     beta= 0.50
     CG style diagonalization
     ethr =  8.85E-10,  avg # of iterations =  3.2

     negative rho (up, down):  1.659E-07 0.000E+00

     total cpu time spent up to now is        0.0 secs

     total energy              =     -90.98088823 Ry
     Harris-Foulkes estimate   =     -90.98088826 Ry
     estimated scf accuracy    <       0.00000005 Ry

     iteration # 15     ecut=    50.00 Ry     beta= 0.50
     CG style diagonalization
     ethr =  1.72E-10,  avg # of iterations =  4.0

     negative rho (up, down):  1.585E-07 0.000E+00

     total cpu time spent up to now is        0.0 secs

     total energy              =     -90.98088825 Ry
     Harris-Foulkes estimate   =     -90.98088825 Ry
     estimated scf accuracy    <          6.3E-09 Ry

     iteration # 16     ecut=    50.00 Ry     beta= 0.50
     CG style diagonalization
     ethr =  1.96E-11,  avg # of iterations =  3.9

     negative rho (up, down):  8.247E-08 0.000E+00

     total cpu time spent up to now is        0.0 secs

     total energy              =     -90.98088824 Ry
     Harris-Foulkes estimate   =     -90.98088825 Ry
     estimated scf accuracy    <          6.5E-10 Ry

     iteration # 17     ecut=    50.00 Ry     beta= 0.50
     CG style diagonalization
     ethr =  2.04E-12,  avg # of iterations =  4.2

     negative rho (up, down):  7.894E-08 0.000E+00

     total cpu time spent up to now is        0.0 secs

     total energy              =     -90.98088824 Ry
     Harris-Foulkes estimate   =     -90.98088824 Ry
     estimated scf accuracy    <          2.7E-10 Ry

     iteration # 18     ecut=    50.00 Ry     beta= 0.50
     CG style diagonalization
     ethr =  8.38E-13,  avg # of iterations =  3.2

     negative rho (up, down):  7.747E-08 0.000E+00

     total cpu time spent up to now is        0.0 secs

     End of self-consistent calculation

          k = 0.0000 0.0000 0.0000 ( 17177 PWs)   bands (ev):

   -12.6301  -9.5982  -8.4821  -8.3199  -8.0745  -7.5100  -5.6373  -5.0584
    -3.9472  -3.2194  -3.0001  -2.9700  -2.4791  -2.2463  -1.8914  -1.4761
     0.0188   0.2307   0.8846   1.3789

          k = 0.0000 0.1250 0.0000 ( 17177 PWs)   bands (ev):

   -12.5658  -9.6387  -9.0230  -8.3097  -7.8581  -7.0411  -5.6540  -5.2719
    -3.9978  -3.3586  -3.2359  -2.9789  -2.2927  -2.0298  -1.7263  -1.3767
     0.1262   0.2474   0.8326   1.3889

          k = 0.0000 0.2500 0.0000 ( 17173 PWs)   bands (ev):

   -12.3788 -10.0742  -9.2724  -8.2567  -7.7361  -6.3580  -5.8910  -5.3679
    -4.2403  -3.7528  -3.2353  -2.8733  -2.2046  -1.8460  -1.5127  -0.9940
    -0.0514   0.6467   1.2178   1.4833

          k = 0.0000 0.3750 0.0000 ( 17118 PWs)   bands (ev):

   -12.1016 -10.6800  -9.2087  -8.2013  -7.6354  -6.3423  -5.8598  -5.3898
    -4.2756  -3.8299  -3.2237  -2.7457  -2.3509  -1.8938  -1.3176  -0.6788
    -0.1688   1.1731   1.5170   1.7112

          k = 0.0000-0.5000 0.0000 ( 17108 PWs)   bands (ev):

   -11.9105 -10.9907  -9.1646  -8.1781  -7.5957  -6.4476  -5.7887  -5.4629
    -4.3152  -3.5512  -3.2318  -2.7460  -2.5337  -1.9101  -1.0824  -0.8135
    -0.1350   1.2186   1.5031   1.8254

          k = 0.1250 0.1250 0.0000 ( 17167 PWs)   bands (ev):

   -12.4986  -9.6759  -9.0227  -8.9410  -7.2695  -6.6830  -5.8001  -5.5530
    -4.0573  -3.5879  -3.1788  -3.0264  -2.2585  -1.7932  -1.5135  -1.1480
     0.0429   0.1834   0.7666   1.4037

          k = 0.1250 0.2500 0.0000 ( 17162 PWs)   bands (ev):

   -12.3090 -10.0639  -9.2572  -8.9106  -7.1006  -6.2561  -6.0300  -5.4835
    -4.1812  -3.7879  -3.3042  -2.7452  -2.3684  -1.8791  -1.1598  -0.8368
    -0.1251   0.5965   1.2322   1.5259

          k = 0.1250 0.3750 0.0000 ( 17120 PWs)   bands (ev):

   -12.0306 -10.6447  -9.2141  -8.7534  -7.3679  -6.3936  -5.7520  -5.2991
    -4.0257  -3.7794  -3.3952  -2.8127  -2.4491  -1.8342  -1.1224  -0.4866
    -0.2271   1.1787   1.4781   1.6425

          k = 0.1250-0.5000 0.0000 ( 17112 PWs)   bands (ev):

   -11.8474 -10.9342  -9.2006  -8.5554  -7.7033  -6.4286  -5.6317  -5.1656
    -4.2166  -3.6258  -3.1975  -2.7031  -2.4915  -1.9152  -0.9884  -0.7698
    -0.2244   1.1832   1.4988   1.8346

          k = 0.2500 0.2500 0.0000 ( 17154 PWs)   bands (ev):

   -12.1174 -10.0967  -9.6024  -9.0664  -7.3127  -6.3093  -5.5658  -5.2688
    -4.1517  -3.9378  -3.0155  -2.6751  -2.6208  -1.9094  -0.8566  -0.6295
    -0.1947   0.5625   1.4844   1.8626

          k = 0.2500 0.3750 0.0000 ( 17103 PWs)   bands (ev):

   -11.8392 -10.5175  -9.5931  -9.0281  -7.7784  -6.3721  -5.3270  -4.9567
    -4.0094  -3.5628  -3.2985  -2.7747  -2.4461  -1.7919  -0.9233  -0.4946
    -0.1589   0.9595   1.4593   1.5923

          k = 0.2500-0.5000 0.0000 ( 17106 PWs)   bands (ev):

   -11.6647 -10.7724  -9.4221  -9.1256  -7.9594  -6.4802  -5.3399  -4.7346
    -3.9896  -3.5036  -3.0990  -2.5959  -2.2875  -1.9136  -1.0301  -0.5359
    -0.3803   0.9931   1.4065   1.8496

          k = 0.3750 0.3750 0.0000 ( 17102 PWs)   bands (ev):

   -11.5637 -10.4281 -10.0150  -9.1958  -8.0901  -6.4442  -5.1676  -4.7893
    -3.7308  -3.2784  -3.2365  -2.5168  -2.1603  -1.7873  -0.8591  -0.7661
    -0.0984   0.9039   1.2894   1.5226

          k = 0.3750-0.5000 0.0000 ( 17128 PWs)   bands (ev):

   -11.3979 -10.5469  -9.9223  -9.4721  -8.1148  -6.5266  -5.2176  -4.7303
    -3.7933  -3.0882  -2.7271  -2.2604  -2.0027  -1.8513  -1.1443  -0.7417
    -0.3723   0.7791   1.1563   1.5328

          k =-0.5000-0.5000 0.0000 ( 17160 PWs)   bands (ev):

   -11.2203 -10.4399 -10.1542  -9.6662  -8.1487  -6.5495  -5.1871  -4.7380
    -3.9192  -2.8001  -2.3979  -1.9378  -1.7934  -1.7577  -1.2248  -1.1405
    -0.4019   0.6020   1.0819   1.2517

          k =-0.1250 0.1250 0.0000 ( 17167 PWs)   bands (ev):

   -12.5046  -9.6518  -9.1363  -8.6668  -7.3972  -7.1553  -5.6650  -5.1841
    -4.0403  -3.4404  -3.0009  -2.8835  -2.4249  -2.1941  -1.6116  -1.4404
     0.0190   0.6003   1.1251   1.4605

          k =-0.1250 0.2500 0.0000 ( 17162 PWs)   bands (ev):

   -12.3209 -10.0105  -9.3332  -8.6748  -7.4946  -6.6816  -5.7220  -5.0738
    -4.2600  -3.4039  -3.3273  -2.7804  -2.2287  -2.0902  -1.4383  -1.0857
    -0.1599   0.6154   1.3624   1.8222

          k =-0.1250 0.3750 0.0000 ( 17120 PWs)   bands (ev):

   -12.0457 -10.6083  -9.2634  -8.5354  -7.7232  -6.4818  -5.6565  -4.9595
    -4.4207  -3.6634  -3.0244  -2.8821  -2.1920  -2.0024  -1.2167  -0.7844
    -0.2841   0.8830   1.4645   1.7322

          k =-0.2500 0.2500 0.0000 ( 17154 PWs)   bands (ev):

   -12.1408  -9.9986  -9.5342  -9.1165  -7.4277  -6.7523  -5.5595  -4.9235
    -3.9735  -3.5250  -2.8637  -2.7366  -2.5935  -2.1078  -1.1322  -1.0028
    -0.3060   0.6766   1.2798   1.8503

          k =-0.2500 0.3750 0.0000 ( 17103 PWs)   bands (ev):

   -11.8688 -10.4461  -9.4403  -9.2146  -7.7737  -6.5941  -5.4281  -4.7539
    -3.9614  -3.3508  -3.0891  -2.6686  -2.3771  -1.9403  -1.0509  -0.7228
    -0.4126   0.6612   1.3010   1.8134

          k =-0.3750 0.3750 0.0000 ( 17102 PWs)   bands (ev):

   -11.6013 -10.3504  -9.8544  -9.4624  -7.9804  -6.5772  -5.3083  -4.7527
    -3.6162  -3.1429  -2.8300  -2.4832  -2.1939  -1.9264  -1.0459  -0.6419
    -0.5252   0.6346   1.0520   1.7941

     highest occupied, lowest unoccupied level (ev):    -0.4866   -0.5252

!    total energy              =     -90.98088824 Ry
     Harris-Foulkes estimate   =     -90.98088824 Ry
     estimated scf accuracy    <          9.1E-11 Ry

     The total energy is the sum of the following terms:

     one-electron contribution =    -217.41392726 Ry
     hartree contribution      =     115.52025566 Ry
     xc contribution           =     -48.75213582 Ry
     ewald contribution        =      59.66491918 Ry

     convergence has been achieved in  18 iterations

     negative rho (up, down):  7.747E-08 0.000E+00

     Forces acting on atoms (cartesian axes, Ry/au):

     atom    1 type  1   force =     0.00032888    0.00032888    0.00055804
     atom    2 type  1   force =     0.00097460   -0.00054881    0.00020456
     atom    3 type  1   force =    -0.00054881    0.00097460    0.00020456
     atom    4 type  1   force =     0.00042343    0.00042343   -0.00030602
     atom    5 type  1   force =    -0.00012439   -0.00012439    0.00040445
     atom    6 type  1   force =    -0.00062992   -0.00031416   -0.00010240
     atom    7 type  1   force =    -0.00031416   -0.00062992   -0.00010240
     atom    8 type  1   force =    -0.00010962   -0.00010962   -0.00086078

     Total force =     0.001189     Total SCF correction =     0.000011

     BFGS Geometry Optimization

     bfgs converged in   1 scf cycles and   0 bfgs steps
     (criteria: energy <  1.0E-04 Ry, force <  1.0E-03 Ry/Bohr)

     End of BFGS Geometry Optimization

     Final energy   =     -90.9808882393 Ry
Begin final coordinates

ATOMIC_POSITIONS (angstrom)
Si       0.408193841   0.408193841   1.527239673    0   0   1
Si      -0.490228046   2.334967898   2.619095630    0   0   1
Si       2.334967898  -0.490228046   2.619095630    0   0   1
Si       3.126033954   3.126033954  -0.499343702    0   0   1
Si       2.092592545   2.092592545   1.310900204    0   0   1
Si       1.459132827   3.073122740   3.669375891    0   0   1
Si       3.073122740   1.459132827   3.669375891    0   0   1
Si       4.204116242   4.204116241   1.292192782    0   0   1
End final coordinates



     Writing output data file Si.1_ML.save

     init_run     :      0.00s CPU      0.00s WALL (       1 calls)
     electrons    :      0.00s CPU      0.00s WALL (       1 calls)
     forces       :      0.00s CPU      0.00s WALL (       1 calls)

     Called by init_run:
     wfcinit      :      0.00s CPU      0.00s WALL (       1 calls)
     potinit      :      0.00s CPU      0.00s WALL (       1 calls)

     Called by electrons:
     c_bands      :      0.00s CPU      0.00s WALL (      18 calls)
     sum_band     :      0.00s CPU      0.00s WALL (      18 calls)
     v_of_rho     :      0.00s CPU      0.00s WALL (      19 calls)
     newd         :      0.00s CPU      0.00s WALL (      19 calls)
     mix_rho      :      0.00s CPU      0.00s WALL (      18 calls)

     Called by c_bands:
     init_us_2    :      0.00s CPU      0.00s WALL (     266 calls)
     ccgdiagg     :      0.00s CPU      0.00s WALL (     126 calls)
     wfcrot       :      0.00s CPU      0.00s WALL (     126 calls)

     Called by sum_band:
     sum_band:bec :      0.00s CPU      0.00s WALL (     126 calls)
     addusdens    :      0.00s CPU      0.00s WALL (      18 calls)

     Called by *cgdiagg:
     h_psi        :      0.00s CPU      0.00s WALL (    6889 calls)
     s_psi        :      0.00s CPU      0.00s WALL (   13652 calls)
     cdiaghg      :      0.00s CPU      0.00s WALL (     126 calls)

     Called by h_psi:
     h_psi:pot    :      0.00s CPU      0.00s WALL (    6889 calls)
     h_psi:calbec :      0.00s CPU      0.00s WALL (    6889 calls)
     vloc_psi     :      0.00s CPU      0.00s WALL (    6889 calls)
     add_vuspsi   :      0.00s CPU      0.00s WALL (    6889 calls)
     h_1psi       :      0.00s CPU      0.00s WALL (    6763 calls)

     General routines
     calbec       :      0.00s CPU      0.00s WALL (   13806 calls)
     fft          :      0.00s CPU      0.00s WALL (     311 calls)
     ffts         :      0.00s CPU      0.00s WALL (    3312 calls)
     fftw         :      0.00s CPU      0.00s WALL (   21254 calls)
     interpolate  :      0.00s CPU      0.00s WALL (      37 calls)

     Parallel routines

     PWSCF        :     0.00s CPU         0.00s WALL


   This run was terminated on:   9:47:51  31Mar2018            

=------------------------------------------------------------------------------=
   JOB DONE.
=------------------------------------------------------------------------------=
Note: The following floating-point exceptions are signalling: IEEE_UNDERFLOW_FLAG
Note: The following floating-point exceptions are signalling: IEEE_UNDERFLOW_FLAG
Note: The following floating-point exceptions are signalling: IEEE_UNDERFLOW_FLAG
