
     Program PWSCF v.6.4.1 starts on 25Sep2021 at 10:40:20 

     This program is part of the open-source Quantum ESPRESSO suite
     for quantum simulation of materials; please cite
         "P. Giannozzi et al., J. Phys.:Condens. Matter 21 395502 (2009);
         "P. Giannozzi et al., J. Phys.:Condens. Matter 29 465901 (2017);
          URL http://www.quantum-espresso.org", 
     in publications or presentations arising from this work. More details at
     http://www.quantum-espresso.org/quote

     Parallel version (MPI), running on    12 processors

     MPI processes distributed on     3 nodes
     K-points division:     npool     =       3
     R & G space division:  proc/nbgrp/npool/nimage =       4
     Reading input from Si.Fd-3m_1ML.relax_0.000.in

     Current dimensions of program PWSCF are:
     Max number of different atomic species (ntypx) = 10
     Max number of k-points (npk) =  40000
     Max angular momentum in pseudopotentials (lmaxx) =  3
               file Si.pbe-nl-kjpaw_psl.1.0.0.UPF: wavefunction(s)  3S 3P renormalized

     Subspace diagonalization in iterative solution of the eigenvalue problem:
     a serial algorithm will be used

     Message from routine setup:
     DEPRECATED: symmetry with ibrav=0, use correct ibrav instead
     Message from routine setup:
     Dynamics, you should have no symmetries
 
     Parallelization info
     --------------------
     sticks:   dense  smooth     PW     G-vecs:    dense   smooth      PW
     Min         370     370    108                28044    28044    4410
     Max         371     371    110                28053    28053    4414
     Sum        1481    1481    437               112185   112185   17649
 

     Title: 
     Relaxation of atomic positions for single monolayer slab of Si using PBE   


     bravais-lattice index     =            0
     lattice parameter (alat)  =      10.3320  a.u.
     unit-cell volume          =    2867.6230 (a.u.)^3
     number of atoms/cell      =            8
     number of atomic types    =            1
     number of electrons       =        32.00
     number of Kohn-Sham states=           24
     kinetic-energy cutoff     =      45.0000  Ry
     charge density cutoff     =     175.0000  Ry
     convergence threshold     =      1.0E-08
     mixing beta               =       0.5000
     number of iterations used =            8  local-TF  mixing
     Exchange-correlation      = SLA PW PBX PBC ( 1  4  3  4 0 0)
     Using LIBXC version       =    4   3   4
     nstep                     =          150


     celldm(1)=  10.331964  celldm(2)=   0.000000  celldm(3)=   0.000000
     celldm(4)=   0.000000  celldm(5)=   0.000000  celldm(6)=   0.000000

     crystal axes: (cart. coord. in units of alat)
               a(1) = (   1.000000   0.000000   0.000000 )  
               a(2) = (   0.000000   1.000000   0.000000 )  
               a(3) = (   0.000000   0.000000   2.600000 )  

     reciprocal axes: (cart. coord. in units 2 pi/alat)
               b(1) = (  1.000000  0.000000  0.000000 )  
               b(2) = (  0.000000  1.000000  0.000000 )  
               b(3) = (  0.000000  0.000000  0.384615 )  


     PseudoPot. # 1 for Si read from file:
     /share/pseudo/Si.pbe-nl-kjpaw_psl.1.0.0.UPF
     MD5 check sum: 3686bff6734aab787fb18a3c8374d51f
     Pseudo is Projector augmented-wave + core cor, Zval =  4.0
     Generated using "atomic" code by A. Dal Corso v.6.3
     Shape of augmentation charge: PSQ
     Using radial grid of 1141 points,  4 beta functions with: 
                l(1) =   0
                l(2) =   0
                l(3) =   1
                l(4) =   1
     Q(r) pseudized with 0 coefficients 


     atomic species   valence    mass     pseudopotential
        Si             4.00    28.08600     Si( 1.00)

      2 Sym. Ops. (no inversion) found



   Cartesian axes

     site n.     atom                  positions (alat units)
         1           Si  tau(   1) = (   0.0000150   0.0000150   0.8016128  )
         2           Si  tau(   2) = (   0.0000143   0.5000173   1.3038383  )
         3           Si  tau(   3) = (   0.5000173   0.0000143   1.3038383  )
         4           Si  tau(   4) = (   0.5000170   0.5000170   0.8016106  )
         5           Si  tau(   5) = (   0.2500262   0.2500262   1.0462567  )
         6           Si  tau(   6) = (   0.2500027   0.7500298   1.5484958  )
         7           Si  tau(   7) = (   0.7500298   0.2500027   1.5484958  )
         8           Si  tau(   8) = (   0.7500067   0.7500067   1.0462565  )

     number of k points=    21  gaussian smearing, width (Ry)=  0.0100
                       cart. coord. in units 2pi/alat
        k(    1) = (   0.0000000   0.0000000   0.0000000), wk =   0.0312500
        k(    2) = (   0.0000000   0.1250000   0.0000000), wk =   0.1250000
        k(    3) = (   0.0000000   0.2500000   0.0000000), wk =   0.1250000
        k(    4) = (   0.0000000   0.3750000   0.0000000), wk =   0.1250000
        k(    5) = (   0.0000000  -0.5000000   0.0000000), wk =   0.0625000
        k(    6) = (   0.1250000   0.1250000   0.0000000), wk =   0.0625000
        k(    7) = (   0.1250000   0.2500000   0.0000000), wk =   0.1250000
        k(    8) = (   0.1250000   0.3750000   0.0000000), wk =   0.1250000
        k(    9) = (   0.1250000  -0.5000000   0.0000000), wk =   0.1250000
        k(   10) = (   0.2500000   0.2500000   0.0000000), wk =   0.0625000
        k(   11) = (   0.2500000   0.3750000   0.0000000), wk =   0.1250000
        k(   12) = (   0.2500000  -0.5000000   0.0000000), wk =   0.1250000
        k(   13) = (   0.3750000   0.3750000   0.0000000), wk =   0.0625000
        k(   14) = (   0.3750000  -0.5000000   0.0000000), wk =   0.1250000
        k(   15) = (  -0.5000000  -0.5000000   0.0000000), wk =   0.0312500
        k(   16) = (  -0.1250000   0.1250000   0.0000000), wk =   0.0625000
        k(   17) = (  -0.1250000   0.2500000   0.0000000), wk =   0.1250000
        k(   18) = (  -0.1250000   0.3750000   0.0000000), wk =   0.1250000
        k(   19) = (  -0.2500000   0.2500000   0.0000000), wk =   0.0625000
        k(   20) = (  -0.2500000   0.3750000   0.0000000), wk =   0.1250000
        k(   21) = (  -0.3750000   0.3750000   0.0000000), wk =   0.0625000

     Dense  grid:   112185 G-vectors     FFT dimensions: (  45,  45, 120)

     Estimated max dynamical RAM per process >      42.62 MB

     Estimated total dynamical RAM >     511.46 MB

     Initial potential from superposition of free atoms

     starting charge   31.99553, renormalised to   32.00000

     negative rho (up, down):  3.908E-06 0.000E+00
     Starting wfcs are   32 randomized atomic wfcs
     Checking if some PAW data can be deallocated... 

     total cpu time spent up to now is       20.5 secs

     Self-consistent Calculation

     iteration #  1     ecut=    45.00 Ry     beta= 0.50
     CG style diagonalization
     ethr =  1.00E-02,  avg # of iterations =  3.2

     Threshold (ethr) on eigenvalues was too large:
     Diagonalizing with lowered threshold

     CG style diagonalization
     ethr =  8.46E-04,  avg # of iterations =  2.2

     total cpu time spent up to now is      138.6 secs

     total energy              =    -373.29951081 Ry
     Harris-Foulkes estimate   =    -373.34150420 Ry
     estimated scf accuracy    <       0.27603572 Ry

     iteration #  2     ecut=    45.00 Ry     beta= 0.50
     CG style diagonalization
     ethr =  8.63E-04,  avg # of iterations =  3.0

     total cpu time spent up to now is      187.1 secs

     total energy              =    -373.25645582 Ry
     Harris-Foulkes estimate   =    -373.30764969 Ry
     estimated scf accuracy    <       0.14650933 Ry

     iteration #  3     ecut=    45.00 Ry     beta= 0.50
     CG style diagonalization
     ethr =  4.58E-04,  avg # of iterations =  3.2

     total cpu time spent up to now is      241.2 secs

     total energy              =    -373.27598388 Ry
     Harris-Foulkes estimate   =    -373.27708220 Ry
     estimated scf accuracy    <       0.00758763 Ry

     iteration #  4     ecut=    45.00 Ry     beta= 0.50
     CG style diagonalization
     c_bands:  1 eigenvalues not converged
     c_bands:  1 eigenvalues not converged
     ethr =  2.37E-05,  avg # of iterations =  4.9

     total cpu time spent up to now is      320.4 secs

     total energy              =    -373.27750283 Ry
     Harris-Foulkes estimate   =    -373.27903872 Ry
     estimated scf accuracy    <       0.00398556 Ry

     iteration #  5     ecut=    45.00 Ry     beta= 0.50
     CG style diagonalization
     c_bands:  1 eigenvalues not converged
     ethr =  1.25E-05,  avg # of iterations =  3.4

     total cpu time spent up to now is      376.2 secs

     total energy              =    -373.27781493 Ry
     Harris-Foulkes estimate   =    -373.27802964 Ry
     estimated scf accuracy    <       0.00127126 Ry

     iteration #  6     ecut=    45.00 Ry     beta= 0.50
     CG style diagonalization
     ethr =  3.97E-06,  avg # of iterations =  3.3

     total cpu time spent up to now is      437.1 secs

     total energy              =    -373.27756150 Ry
     Harris-Foulkes estimate   =    -373.27788665 Ry
     estimated scf accuracy    <       0.00087152 Ry

     iteration #  7     ecut=    45.00 Ry     beta= 0.50
     CG style diagonalization
     c_bands:  1 eigenvalues not converged
     ethr =  2.72E-06,  avg # of iterations =  4.0

     total cpu time spent up to now is      498.5 secs

     total energy              =    -373.27783520 Ry
     Harris-Foulkes estimate   =    -373.27789548 Ry
     estimated scf accuracy    <       0.00033224 Ry

     iteration #  8     ecut=    45.00 Ry     beta= 0.50
     CG style diagonalization
     ethr =  1.04E-06,  avg # of iterations =  3.1

     total cpu time spent up to now is      548.9 secs

     total energy              =    -373.27781562 Ry
     Harris-Foulkes estimate   =    -373.27785464 Ry
     estimated scf accuracy    <       0.00018008 Ry

     iteration #  9     ecut=    45.00 Ry     beta= 0.50
     CG style diagonalization
     ethr =  5.63E-07,  avg # of iterations =  3.4

     negative rho (up, down):  2.432E-08 0.000E+00

     total cpu time spent up to now is      603.6 secs

     total energy              =    -373.27785595 Ry
     Harris-Foulkes estimate   =    -373.27785211 Ry
     estimated scf accuracy    <       0.00000183 Ry

     iteration # 10     ecut=    45.00 Ry     beta= 0.50
     CG style diagonalization
     ethr =  5.72E-09,  avg # of iterations =  4.7

     negative rho (up, down):  4.585E-07 0.000E+00

     total cpu time spent up to now is      687.4 secs

     total energy              =    -373.27785821 Ry
     Harris-Foulkes estimate   =    -373.27785932 Ry
     estimated scf accuracy    <       0.00000540 Ry

     iteration # 11     ecut=    45.00 Ry     beta= 0.50
     CG style diagonalization
     ethr =  5.72E-09,  avg # of iterations =  3.2

     negative rho (up, down):  1.091E-06 0.000E+00

     total cpu time spent up to now is      748.6 secs

     total energy              =    -373.27785801 Ry
     Harris-Foulkes estimate   =    -373.27785849 Ry
     estimated scf accuracy    <       0.00000121 Ry

     iteration # 12     ecut=    45.00 Ry     beta= 0.50
     CG style diagonalization
     ethr =  3.79E-09,  avg # of iterations =  3.5

     negative rho (up, down):  1.330E-06 0.000E+00

     total cpu time spent up to now is      825.7 secs

     total energy              =    -373.27785838 Ry
     Harris-Foulkes estimate   =    -373.27785842 Ry
     estimated scf accuracy    <       0.00000018 Ry

     iteration # 13     ecut=    45.00 Ry     beta= 0.50
     CG style diagonalization
     ethr =  5.54E-10,  avg # of iterations =  3.3

     negative rho (up, down):  1.209E-06 0.000E+00

     total cpu time spent up to now is      894.0 secs

     total energy              =    -373.27785839 Ry
     Harris-Foulkes estimate   =    -373.27785840 Ry
     estimated scf accuracy    <       0.00000004 Ry

     iteration # 14     ecut=    45.00 Ry     beta= 0.50
     CG style diagonalization
     ethr =  1.25E-10,  avg # of iterations =  3.6

     negative rho (up, down):  9.965E-07 0.000E+00

     total cpu time spent up to now is      958.0 secs

     End of self-consistent calculation

          k = 0.0000 0.0000 0.0000 ( 14593 PWs)   bands (ev):

   -11.7762  -9.6349  -8.3802  -8.3801  -7.5862  -7.5860  -6.3344  -3.8577
    -3.8577  -2.9405  -2.7013  -2.5694  -2.1928  -2.1926  -1.5687  -0.8258
    -0.8257  -0.5515   0.3402   0.8069   0.9628   1.7805   1.9622   2.3332

          k = 0.0000 0.1250 0.0000 ( 14608 PWs)   bands (ev):

   -11.7133  -9.5893  -8.9792  -8.2535  -7.5010  -7.1709  -6.3442  -4.0651
    -3.7387  -3.1300  -3.1203  -2.4560  -2.0387  -2.0161  -1.6716  -1.0462
    -0.7006  -0.5647   0.2538   1.1551   1.2534   1.7161   2.0940   2.2779

          k = 0.0000 0.2500 0.0000 ( 14588 PWs)   bands (ev):

   -11.5258  -9.6486  -9.4562  -8.4417  -7.2719  -6.4642  -6.3916  -4.2008
    -3.7384  -3.7370  -3.4625  -2.8182  -1.6966  -1.6313  -1.6191  -1.1599
    -0.8355  -0.6708   0.2431   1.4862   1.9142   2.0307   2.0543   3.0608

          k = 0.0000 0.3750 0.0000 ( 14586 PWs)   bands (ev):

   -11.2170 -10.2647  -9.2480  -8.7048  -7.0001  -6.5152  -5.7364  -4.3803
    -4.1448  -3.7857  -3.7195  -3.3804  -1.6062  -1.4243  -1.2204  -1.2043
    -0.8247  -0.5570   0.0541   0.7643   2.6774   2.7179   3.1394   3.3236

          k = 0.0000-0.5000 0.0000 ( 14642 PWs)   bands (ev):

   -10.7933 -10.7932  -8.9869  -8.9867  -6.7301  -6.7301  -5.0407  -5.0404
    -3.8605  -3.8605  -3.8107  -3.8107  -1.4829  -1.4827  -1.2301  -1.2301
    -0.3443  -0.3441   0.0115   0.0118   3.0805   3.0805   3.6095   3.6099

          k = 0.1250 0.1250 0.0000 ( 14613 PWs)   bands (ev):

   -11.6475  -9.4925  -8.9666  -8.9665  -6.8805  -6.8804  -6.4682  -4.0349
    -4.0349  -3.5453  -3.1340  -2.6109  -1.8184  -1.7374  -1.7373  -1.1073
    -1.1073  -0.4805   0.4640   1.0570   1.7753   2.2277   2.3033   2.3034

          k = 0.1250 0.2500 0.0000 ( 14612 PWs)   bands (ev):

   -11.4589  -9.6377  -9.3054  -9.0276  -6.6742  -6.6276  -6.2525  -4.1453
    -3.9549  -3.8577  -3.8335  -2.7695  -1.6633  -1.5185  -1.3595  -1.2206
    -1.1216  -0.7212   0.4886   1.4899   1.8827   2.4509   2.6637   3.0160

          k = 0.1250 0.3750 0.0000 ( 14619 PWs)   bands (ev):

   -11.1519 -10.2418  -9.1304  -9.0329  -6.9753  -6.4165  -5.7632  -4.5887
    -3.9460  -3.9132  -3.7963  -3.1774  -1.8021  -1.3960  -1.1755  -1.1106
    -0.8719  -0.6449   0.2733   1.1757   2.4046   2.7600   3.1174   3.2373

          k = 0.1250-0.5000 0.0000 ( 14614 PWs)   bands (ev):

   -10.7583 -10.7358  -9.2661  -8.6889  -7.3231  -6.2686  -5.3714  -5.3363
    -3.8346  -3.5729  -3.5566  -3.3822  -1.8692  -1.5122  -1.2827  -1.1953
    -0.3210  -0.1419  -0.0701   0.3971   3.0526   3.0703   3.4738   3.4856

          k = 0.2500 0.2500 0.0000 ( 14648 PWs)   bands (ev):

   -11.2751  -9.6098  -9.6096  -9.0698  -7.0655  -6.1414  -6.1414  -4.5558
    -4.0116  -3.8934  -3.8933  -2.3643  -1.6170  -1.5813  -1.5813  -1.0378
    -0.9065  -0.9064   0.8236   1.3700   1.8855   2.5665   3.1094   3.1096

          k = 0.2500 0.3750 0.0000 ( 14623 PWs)   bands (ev):

   -10.9829 -10.1540  -9.5739  -8.7489  -7.5061  -6.0739  -5.9050  -5.2831
    -3.9323  -3.5189  -3.4355  -2.4826  -1.9442  -1.5357  -1.4985  -1.3425
    -0.6569  -0.4028   0.8792   1.4319   1.8171   2.8102   3.1840   3.2548

          k = 0.2500-0.5000 0.0000 ( 14646 PWs)   bands (ev):

   -10.6309 -10.6023  -9.5513  -8.3529  -7.9089  -6.0355  -5.9570  -5.7343
    -3.6860  -3.0824  -2.8573  -2.7616  -2.1425  -1.9619  -1.4747  -1.1298
    -0.4370   0.0112   0.6685   0.7648   2.5578   2.5938   3.0252   3.1197

          k = 0.3750 0.3750 0.0000 ( 14656 PWs)   bands (ev):

   -10.7297 -10.0152 -10.0150  -8.3929  -8.0033  -5.9801  -5.9801  -5.9608
    -3.7344  -2.9580  -2.9579  -2.0576  -2.0001  -1.9008  -1.9008  -1.2093
    -0.3023  -0.3022   1.3563   1.4147   1.5850   2.8774   2.8775   3.0188

          k = 0.3750-0.5000 0.0000 ( 14652 PWs)   bands (ev):

   -10.4422 -10.4219  -9.8519  -8.3630  -7.9915  -6.5372  -5.9878  -5.9388
    -3.4125  -2.6047  -2.4691  -2.3310  -2.1872  -2.1202  -1.7516  -1.0360
    -0.3187  -0.0019   1.0603   1.4005   1.8486   2.0045   2.2361   2.8624

          k =-0.5000-0.5000 0.0000 ( 14632 PWs)   bands (ev):

   -10.3621 -10.1523 -10.1522  -8.5445  -7.7716  -6.8354  -5.9965  -5.9964
    -3.1531  -2.8121  -2.3413  -2.3412  -1.9080  -1.9077  -1.9016  -0.9711
    -0.1325  -0.1325   1.1765   1.5268   1.7237   1.8360   1.8362   3.4373

          k =-0.1250 0.1250 0.0000 ( 14613 PWs)   bands (ev):

   -11.6549  -9.5987  -9.1975  -7.8703  -7.5370  -7.4947  -6.2636  -4.0745
    -3.7519  -3.4722  -2.8541  -2.1664  -2.1589  -2.0039  -1.5586  -0.9052
    -0.8783  -0.4248  -0.0003   1.2466   1.4611   1.4895   1.6151   2.4042

          k =-0.1250 0.2500 0.0000 ( 14612 PWs)   bands (ev):

   -11.4733  -9.6767  -9.5324  -7.8917  -7.8663  -6.7940  -6.2109  -4.3855
    -4.0284  -3.4375  -2.9534  -2.2368  -2.1116  -1.6586  -1.5652  -1.3110
    -0.6899  -0.3054   0.1050   0.9471   1.5319   1.7362   2.0377   2.7962

          k =-0.1250 0.3750 0.0000 ( 14619 PWs)   bands (ev):

   -11.1722 -10.2294  -9.4113  -8.2971  -7.6445  -6.2030  -6.0683  -4.9324
    -3.8667  -3.6182  -3.2526  -2.7491  -1.8636  -1.6890  -1.4410  -1.2530
    -0.4090  -0.1509   0.1508   0.2943   2.2044   2.4128   2.9141   3.1651

          k =-0.2500 0.2500 0.0000 ( 14648 PWs)   bands (ev):

   -11.3026  -9.8328  -9.5540  -8.2057  -7.5854  -6.9877  -6.0986  -4.9911
    -3.6928  -3.2229  -2.6108  -2.4350  -1.8898  -1.8028  -1.5612  -1.4482
    -0.1300  -0.0477   0.0524   0.3732   1.4861   1.8194   1.8759   2.7227

          k =-0.2500 0.3750 0.0000 ( 14623 PWs)   bands (ev):

   -11.0187 -10.1815  -9.5501  -8.1837  -7.9134  -6.5608  -6.0405  -5.4480
    -3.3673  -3.2832  -2.6881  -2.3429  -2.1316  -2.1195  -1.5065  -1.1726
    -0.1097   0.1566   0.2330   0.3337   1.7682   2.2607   2.3762   2.7355

          k =-0.3750 0.3750 0.0000 ( 14656 PWs)   bands (ev):

   -10.7639 -10.2283  -9.6927  -8.4546  -7.7158  -6.8420  -5.9863  -5.7854
    -3.1554  -2.7098  -2.6617  -2.4123  -2.2633  -1.9043  -1.6583  -1.0499
    -0.3099   0.1147   0.6276   1.0268   1.6309   1.9785   2.3222   2.6771

     the Fermi energy is    -0.9829 ev

!    total energy              =    -373.27785840 Ry
     Harris-Foulkes estimate   =    -373.27785840 Ry
     estimated scf accuracy    <          5.1E-09 Ry

     convergence has been achieved in  14 iterations

     negative rho (up, down):  9.965E-07 0.000E+00

     Forces acting on atoms (cartesian axes, Ry/au):

     atom    1 type  1   force =     0.00000366    0.00000366    0.00012937
     atom    2 type  1   force =     0.00000402   -0.00000222    0.00062388
     atom    3 type  1   force =    -0.00000222    0.00000402    0.00062388
     atom    4 type  1   force =    -0.00000169   -0.00000169    0.00010248
     atom    5 type  1   force =     0.00000906    0.00000906   -0.00062742
     atom    6 type  1   force =    -0.00000380    0.00000192   -0.00011223
     atom    7 type  1   force =     0.00000192   -0.00000380   -0.00011223
     atom    8 type  1   force =    -0.00001097   -0.00001097   -0.00062772

     Total force =     0.001272     Total SCF correction =     0.000100


     Computing stress (Cartesian axis) and pressure


     negative rho (up, down):  9.965E-07 0.000E+00
          total   stress  (Ry/bohr**3)                   (kbar)     P=   -9.90
  -0.00010107   0.00003013  -0.00000000        -14.87      4.43     -0.00
   0.00003013  -0.00010107  -0.00000000          4.43    -14.87     -0.00
  -0.00000000  -0.00000000   0.00000029         -0.00     -0.00      0.04


     Damped Dynamics Calculation

     Damped Dynamics: convergence achieved in   0 steps

     End of damped dynamics calculation

     Final energy =    -373.2778584019 Ry

Begin final coordinates
     new unit-cell volume =   2867.62301 a.u.^3 (   424.93788 Ang^3 )
     density =      0.87802 g/cm^3

CELL_PARAMETERS (alat= 10.33196444)
   1.000000000   0.000000000   0.000000000
   0.000000000   1.000000000   0.000000000
   0.000000000   0.000000000   2.600000000

ATOMIC_POSITIONS (angstrom)
Si       0.000081947   0.000081947   4.382769865
Si       0.000078368   2.733814666   7.128657605
Si       2.733814666   0.000078368   7.128657605
Si       2.733813194   2.733813194   4.382758139
Si       1.367003543   1.367003543   5.720345945
Si       1.366874920   4.100743227   8.466308306
Si       4.100743227   1.366874920   8.466308306
Si       4.100616883   4.100616883   5.720344706
End final coordinates



     Writing output data file Si.Fd-3m_1ML.save/
 
     init_run     :      2.52s CPU      8.34s WALL (       1 calls)
     electrons    :    345.34s CPU    938.04s WALL (       1 calls)
     forces       :      0.70s CPU      2.07s WALL (       1 calls)
     stress       :      1.17s CPU      2.58s WALL (       1 calls)

     Called by init_run:
     wfcinit      :      0.96s CPU      2.83s WALL (       1 calls)
     potinit      :      0.50s CPU      1.47s WALL (       1 calls)
     hinit0       :      0.20s CPU      0.49s WALL (       1 calls)

     Called by electrons:
     c_bands      :    281.24s CPU    760.19s WALL (      15 calls)
     sum_band     :      9.62s CPU     33.90s WALL (      15 calls)
     v_of_rho     :      2.36s CPU      5.20s WALL (      15 calls)
     newd         :      0.32s CPU      1.10s WALL (      15 calls)
     PAW_pot      :      3.54s CPU     10.59s WALL (      15 calls)
     mix_rho      :     36.62s CPU     80.56s WALL (      15 calls)

     Called by c_bands:
     init_us_2    :      0.17s CPU      0.41s WALL (     231 calls)
     ccgdiagg     :    200.36s CPU    442.06s WALL (     105 calls)
     wfcrot       :     11.30s CPU     35.97s WALL (      98 calls)

     Called by sum_band:
     sum_band:bec :      0.01s CPU      0.00s WALL (     105 calls)
     addusdens    :      0.29s CPU      1.06s WALL (      15 calls)

     Called by *cgdiagg:
     h_psi        :     81.72s CPU    206.93s WALL (    6722 calls)
     s_psi        :      6.54s CPU      9.64s WALL (   13346 calls)
     cdiaghg      :      1.04s CPU      2.14s WALL (      98 calls)

     Called by h_psi:
     h_psi:pot    :     81.54s CPU    206.62s WALL (    6722 calls)
     h_psi:calbec :     46.04s CPU     98.72s WALL (    6722 calls)
     vloc_psi     :     31.32s CPU    101.84s WALL (    6722 calls)
     add_vuspsi   :      4.12s CPU      6.00s WALL (    6722 calls)
     hs_1psi      :     75.95s CPU    180.83s WALL (    6624 calls)
     s_1psi       :     40.85s CPU     83.70s WALL (    6624 calls)

     General routines
     calbec       :     84.47s CPU    180.04s WALL (   13486 calls)
     fft          :      0.44s CPU      1.69s WALL (     191 calls)
     ffts         :      4.62s CPU     15.46s WALL (    1960 calls)
     fftw         :     32.31s CPU    111.58s WALL (   20584 calls)
 
     Parallel routines
     fft_scatt_xy :      2.96s CPU      7.32s WALL (   22735 calls)
     fft_scatt_yz :     25.08s CPU    102.23s WALL (   22735 calls)
 
     PWSCF        :   5m56.04s CPU  16m17.37s WALL

 
   This run was terminated on:  10:56:37  25Sep2021            

=------------------------------------------------------------------------------=
   JOB DONE.
=------------------------------------------------------------------------------=
