
     Program PWSCF v.6.4.1 starts on 25Sep2021 at 10:56:39 

     This program is part of the open-source Quantum ESPRESSO suite
     for quantum simulation of materials; please cite
         "P. Giannozzi et al., J. Phys.:Condens. Matter 21 395502 (2009);
         "P. Giannozzi et al., J. Phys.:Condens. Matter 29 465901 (2017);
          URL http://www.quantum-espresso.org", 
     in publications or presentations arising from this work. More details at
     http://www.quantum-espresso.org/quote

     Parallel version (MPI), running on    12 processors

     MPI processes distributed on     3 nodes
     K-points division:     npool     =       3
     R & G space division:  proc/nbgrp/npool/nimage =       4
     Reading input from Si.Fd-3m_1ML.relax_0.005.in

     Current dimensions of program PWSCF are:
     Max number of different atomic species (ntypx) = 10
     Max number of k-points (npk) =  40000
     Max angular momentum in pseudopotentials (lmaxx) =  3
               file Si.pbe-nl-kjpaw_psl.1.0.0.UPF: wavefunction(s)  3S 3P renormalized

     Subspace diagonalization in iterative solution of the eigenvalue problem:
     a serial algorithm will be used

     Message from routine setup:
     DEPRECATED: symmetry with ibrav=0, use correct ibrav instead
     Message from routine setup:
     Dynamics, you should have no symmetries
 
     Parallelization info
     --------------------
     sticks:   dense  smooth     PW     G-vecs:    dense   smooth      PW
     Min         371     371    109                28402    28402    4465
     Max         373     373    110                28409    28409    4472
     Sum        1489    1489    437               113625   113625   17873
 

     Title: 
     Relaxation of atomic positions for single monolayer slab of Si using PBE   


     bravais-lattice index     =            0
     lattice parameter (alat)  =      10.3836  a.u.
     unit-cell volume          =    2910.8528 (a.u.)^3
     number of atoms/cell      =            8
     number of atomic types    =            1
     number of electrons       =        32.00
     number of Kohn-Sham states=           24
     kinetic-energy cutoff     =      45.0000  Ry
     charge density cutoff     =     175.0000  Ry
     convergence threshold     =      1.0E-08
     mixing beta               =       0.5000
     number of iterations used =            8  local-TF  mixing
     Exchange-correlation      = SLA PW PBX PBC ( 1  4  3  4 0 0)
     Using LIBXC version       =    4   3   4
     nstep                     =          150


     celldm(1)=  10.383624  celldm(2)=   0.000000  celldm(3)=   0.000000
     celldm(4)=   0.000000  celldm(5)=   0.000000  celldm(6)=   0.000000

     crystal axes: (cart. coord. in units of alat)
               a(1) = (   1.000000   0.000000   0.000000 )  
               a(2) = (   0.000000   1.000000   0.000000 )  
               a(3) = (   0.000000   0.000000   2.600000 )  

     reciprocal axes: (cart. coord. in units 2 pi/alat)
               b(1) = (  1.000000  0.000000  0.000000 )  
               b(2) = (  0.000000  1.000000  0.000000 )  
               b(3) = (  0.000000  0.000000  0.384615 )  


     PseudoPot. # 1 for Si read from file:
     /share/pseudo/Si.pbe-nl-kjpaw_psl.1.0.0.UPF
     MD5 check sum: 3686bff6734aab787fb18a3c8374d51f
     Pseudo is Projector augmented-wave + core cor, Zval =  4.0
     Generated using "atomic" code by A. Dal Corso v.6.3
     Shape of augmentation charge: PSQ
     Using radial grid of 1141 points,  4 beta functions with: 
                l(1) =   0
                l(2) =   0
                l(3) =   1
                l(4) =   1
     Q(r) pseudized with 0 coefficients 


     atomic species   valence    mass     pseudopotential
        Si             4.00    28.08600     Si( 1.00)

      2 Sym. Ops. (no inversion) found



   Cartesian axes

     site n.     atom                  positions (alat units)
         1           Si  tau(   1) = (   0.0000149   0.0000149   0.7976247  )
         2           Si  tau(   2) = (   0.0000143   0.4975297   1.2973515  )
         3           Si  tau(   3) = (   0.4975297   0.0000143   1.2973515  )
         4           Si  tau(   4) = (   0.4975294   0.4975294   0.7976225  )
         5           Si  tau(   5) = (   0.2487823   0.2487823   1.0410515  )
         6           Si  tau(   6) = (   0.2487589   0.7462983   1.5407919  )
         7           Si  tau(   7) = (   0.7462983   0.2487589   1.5407919  )
         8           Si  tau(   8) = (   0.7462754   0.7462754   1.0410512  )

     number of k points=    21  gaussian smearing, width (Ry)=  0.0100
                       cart. coord. in units 2pi/alat
        k(    1) = (   0.0000000   0.0000000   0.0000000), wk =   0.0312500
        k(    2) = (   0.0000000   0.1250000   0.0000000), wk =   0.1250000
        k(    3) = (   0.0000000   0.2500000   0.0000000), wk =   0.1250000
        k(    4) = (   0.0000000   0.3750000   0.0000000), wk =   0.1250000
        k(    5) = (   0.0000000  -0.5000000   0.0000000), wk =   0.0625000
        k(    6) = (   0.1250000   0.1250000   0.0000000), wk =   0.0625000
        k(    7) = (   0.1250000   0.2500000   0.0000000), wk =   0.1250000
        k(    8) = (   0.1250000   0.3750000   0.0000000), wk =   0.1250000
        k(    9) = (   0.1250000  -0.5000000   0.0000000), wk =   0.1250000
        k(   10) = (   0.2500000   0.2500000   0.0000000), wk =   0.0625000
        k(   11) = (   0.2500000   0.3750000   0.0000000), wk =   0.1250000
        k(   12) = (   0.2500000  -0.5000000   0.0000000), wk =   0.1250000
        k(   13) = (   0.3750000   0.3750000   0.0000000), wk =   0.0625000
        k(   14) = (   0.3750000  -0.5000000   0.0000000), wk =   0.1250000
        k(   15) = (  -0.5000000  -0.5000000   0.0000000), wk =   0.0312500
        k(   16) = (  -0.1250000   0.1250000   0.0000000), wk =   0.0625000
        k(   17) = (  -0.1250000   0.2500000   0.0000000), wk =   0.1250000
        k(   18) = (  -0.1250000   0.3750000   0.0000000), wk =   0.1250000
        k(   19) = (  -0.2500000   0.2500000   0.0000000), wk =   0.0625000
        k(   20) = (  -0.2500000   0.3750000   0.0000000), wk =   0.1250000
        k(   21) = (  -0.3750000   0.3750000   0.0000000), wk =   0.0625000

     Dense  grid:   113625 G-vectors     FFT dimensions: (  45,  45, 120)

     Estimated max dynamical RAM per process >      43.14 MB

     Estimated total dynamical RAM >     517.69 MB

     Initial potential from superposition of free atoms

     starting charge   31.99553, renormalised to   32.00000

     negative rho (up, down):  5.352E-06 0.000E+00
     Starting wfcs are   32 randomized atomic wfcs
     Checking if some PAW data can be deallocated... 

     total cpu time spent up to now is       18.7 secs

     Self-consistent Calculation

     iteration #  1     ecut=    45.00 Ry     beta= 0.50
     CG style diagonalization
     ethr =  1.00E-02,  avg # of iterations =  3.2

     Threshold (ethr) on eigenvalues was too large:
     Diagonalizing with lowered threshold

     CG style diagonalization
     ethr =  8.29E-04,  avg # of iterations =  2.2

     total cpu time spent up to now is      160.9 secs

     total energy              =    -373.29528443 Ry
     Harris-Foulkes estimate   =    -373.33640593 Ry
     estimated scf accuracy    <       0.27007256 Ry

     iteration #  2     ecut=    45.00 Ry     beta= 0.50
     CG style diagonalization
     ethr =  8.44E-04,  avg # of iterations =  3.0

     total cpu time spent up to now is      209.2 secs

     total energy              =    -373.25408871 Ry
     Harris-Foulkes estimate   =    -373.30338132 Ry
     estimated scf accuracy    <       0.14234765 Ry

     iteration #  3     ecut=    45.00 Ry     beta= 0.50
     CG style diagonalization
     ethr =  4.45E-04,  avg # of iterations =  3.2

     total cpu time spent up to now is      252.8 secs

     total energy              =    -373.27239995 Ry
     Harris-Foulkes estimate   =    -373.27346164 Ry
     estimated scf accuracy    <       0.00775854 Ry

     iteration #  4     ecut=    45.00 Ry     beta= 0.50
     CG style diagonalization
     c_bands:  1 eigenvalues not converged
     c_bands:  1 eigenvalues not converged
     c_bands:  1 eigenvalues not converged
     ethr =  2.42E-05,  avg # of iterations =  4.9

     total cpu time spent up to now is      331.6 secs

     total energy              =    -373.27419598 Ry
     Harris-Foulkes estimate   =    -373.27555015 Ry
     estimated scf accuracy    <       0.00379273 Ry

     iteration #  5     ecut=    45.00 Ry     beta= 0.50
     CG style diagonalization
     ethr =  1.19E-05,  avg # of iterations =  3.3

     total cpu time spent up to now is      377.1 secs

     total energy              =    -373.27436879 Ry
     Harris-Foulkes estimate   =    -373.27462641 Ry
     estimated scf accuracy    <       0.00127168 Ry

     iteration #  6     ecut=    45.00 Ry     beta= 0.50
     CG style diagonalization
     c_bands:  1 eigenvalues not converged
     ethr =  3.97E-06,  avg # of iterations =  3.5

     total cpu time spent up to now is      431.1 secs

     total energy              =    -373.27417451 Ry
     Harris-Foulkes estimate   =    -373.27445555 Ry
     estimated scf accuracy    <       0.00077979 Ry

     iteration #  7     ecut=    45.00 Ry     beta= 0.50
     CG style diagonalization
     c_bands:  1 eigenvalues not converged
     c_bands:  1 eigenvalues not converged
     ethr =  2.44E-06,  avg # of iterations =  3.9

     total cpu time spent up to now is      487.0 secs

     total energy              =    -373.27437135 Ry
     Harris-Foulkes estimate   =    -373.27441386 Ry
     estimated scf accuracy    <       0.00018234 Ry

     iteration #  8     ecut=    45.00 Ry     beta= 0.50
     CG style diagonalization
     c_bands:  1 eigenvalues not converged
     ethr =  5.70E-07,  avg # of iterations =  3.2

     total cpu time spent up to now is      540.1 secs

     total energy              =    -373.27441788 Ry
     Harris-Foulkes estimate   =    -373.27438947 Ry
     estimated scf accuracy    <       0.00006728 Ry

     iteration #  9     ecut=    45.00 Ry     beta= 0.50
     CG style diagonalization
     ethr =  2.10E-07,  avg # of iterations =  3.5

     negative rho (up, down):  1.086E-07 0.000E+00

     total cpu time spent up to now is      601.5 secs

     total energy              =    -373.27443421 Ry
     Harris-Foulkes estimate   =    -373.27443242 Ry
     estimated scf accuracy    <       0.00000126 Ry

     iteration # 10     ecut=    45.00 Ry     beta= 0.50
     CG style diagonalization
     ethr =  3.93E-09,  avg # of iterations =  4.4

     negative rho (up, down):  2.570E-06 0.000E+00

     total cpu time spent up to now is      685.4 secs

     total energy              =    -373.27443539 Ry
     Harris-Foulkes estimate   =    -373.27443548 Ry
     estimated scf accuracy    <       0.00000078 Ry

     iteration # 11     ecut=    45.00 Ry     beta= 0.50
     CG style diagonalization
     ethr =  2.43E-09,  avg # of iterations =  3.1

     negative rho (up, down):  1.166E-06 0.000E+00

     total cpu time spent up to now is      756.7 secs

     total energy              =    -373.27443545 Ry
     Harris-Foulkes estimate   =    -373.27443546 Ry
     estimated scf accuracy    <       0.00000011 Ry

     iteration # 12     ecut=    45.00 Ry     beta= 0.50
     CG style diagonalization
     ethr =  3.31E-10,  avg # of iterations =  3.8

     negative rho (up, down):  1.693E-06 0.000E+00

     total cpu time spent up to now is      832.2 secs

     total energy              =    -373.27443548 Ry
     Harris-Foulkes estimate   =    -373.27443550 Ry
     estimated scf accuracy    <       0.00000003 Ry

     iteration # 13     ecut=    45.00 Ry     beta= 0.50
     CG style diagonalization
     ethr =  1.01E-10,  avg # of iterations =  3.1

     negative rho (up, down):  1.281E-06 0.000E+00

     total cpu time spent up to now is      882.1 secs

     End of self-consistent calculation

          k = 0.0000 0.0000 0.0000 ( 14817 PWs)   bands (ev):

   -11.7815  -9.6525  -8.4274  -8.4272  -7.6398  -7.6396  -6.3696  -3.8881
    -3.8881  -3.0105  -2.7699  -2.6246  -2.2369  -2.2365  -1.6456  -0.8776
    -0.8768  -0.5992   0.2640   0.7256   0.8801   1.7323   1.7333   1.8551

          k = 0.0000 0.1250 0.0000 ( 14810 PWs)   bands (ev):

   -11.7194  -9.6080  -9.0189  -8.3018  -7.5542  -7.2294  -6.3815  -4.0937
    -3.7702  -3.1987  -3.1798  -2.5187  -2.0825  -2.0668  -1.7356  -1.0902
    -0.7556  -0.6112   0.1790   1.0676   1.1642   1.6686   2.0009   2.1617

          k = 0.0000 0.2500 0.0000 ( 14830 PWs)   bands (ev):

   -11.5344  -9.6809  -9.4769  -8.4860  -7.3260  -6.5281  -6.4343  -4.2297
    -3.8086  -3.7626  -3.5128  -2.8836  -1.7516  -1.6862  -1.6593  -1.2009
    -0.8834  -0.7233   0.1758   1.4011   1.8077   1.9286   2.0050   2.8416

          k = 0.0000 0.3750 0.0000 ( 14830 PWs)   bands (ev):

   -11.2298 -10.2882  -9.2743  -8.7430  -7.0549  -6.5647  -5.8032  -4.4454
    -4.1787  -3.8173  -3.7581  -3.4360  -1.6504  -1.4687  -1.2738  -1.2470
    -0.8788  -0.6106  -0.0097   0.6900   2.5807   2.6539   3.0252   3.2623

          k = 0.0000-0.5000 0.0000 ( 14822 PWs)   bands (ev):

   -10.8365 -10.7849  -9.0356  -9.0018  -6.7850  -6.7826  -5.1219  -5.0921
    -3.9189  -3.8936  -3.8480  -3.8346  -1.5353  -1.5150  -1.2880  -1.2653
    -0.4111  -0.3994  -0.0629  -0.0415   3.0091   3.0208   3.5367   3.5489

          k = 0.1250 0.1250 0.0000 ( 14811 PWs)   bands (ev):

   -11.6544  -9.5121  -9.0067  -9.0062  -6.9409  -6.9407  -6.5095  -4.0643
    -4.0639  -3.5940  -3.2054  -2.6806  -1.8699  -1.7861  -1.7840  -1.1535
    -1.1530  -0.5277   0.3862   0.9751   1.6709   2.1247   2.2493   2.2525

          k = 0.1250 0.2500 0.0000 ( 14841 PWs)   bands (ev):

   -11.4682  -9.6703  -9.3272  -9.0662  -6.7212  -6.6874  -6.3138  -4.1790
    -3.9901  -3.9012  -3.8926  -2.8336  -1.7083  -1.5586  -1.4086  -1.2750
    -1.1689  -0.7693   0.4126   1.3978   1.7877   2.3610   2.6043   2.9597

          k = 0.1250 0.3750 0.0000 ( 14837 PWs)   bands (ev):

   -11.1654 -10.2661  -9.1694  -9.0567  -7.0247  -6.4740  -5.8164  -4.6573
    -3.9748  -3.9598  -3.8335  -3.2327  -1.8363  -1.4405  -1.2270  -1.1594
    -0.9188  -0.7051   0.2033   1.0889   2.2968   2.6981   3.0647   3.1672

          k = 0.1250-0.5000 0.0000 ( 14838 PWs)   bands (ev):

   -10.7934 -10.7372  -9.2989  -8.7208  -7.3718  -6.3213  -5.4257  -5.3926
    -3.8612  -3.6273  -3.5959  -3.4449  -1.9030  -1.5598  -1.3318  -1.2416
    -0.3747  -0.2045  -0.1325   0.3238   2.9530   3.0098   3.3612   3.4080

          k = 0.2500 0.2500 0.0000 ( 14836 PWs)   bands (ev):

   -11.2868  -9.6433  -9.6427  -9.0930  -7.1133  -6.1967  -6.1964  -4.6198
    -4.0376  -3.9355  -3.9345  -2.4375  -1.6607  -1.6200  -1.6194  -1.0867
    -0.9623  -0.9613   0.7409   1.2782   1.7841   2.5072   3.0570   3.0585

          k = 0.2500 0.3750 0.0000 ( 14855 PWs)   bands (ev):

   -10.9988 -10.1800  -9.6075  -8.7767  -7.5513  -6.1240  -5.9472  -5.3396
    -3.9554  -3.5702  -3.4962  -2.5522  -1.9783  -1.5831  -1.5405  -1.3884
    -0.7077  -0.4620   0.7975   1.3351   1.7124   2.7558   3.1224   3.1810

          k = 0.2500-0.5000 0.0000 ( 14824 PWs)   bands (ev):

   -10.6663 -10.6078  -9.5836  -8.3878  -7.9498  -6.0838  -6.0079  -5.7676
    -3.7109  -3.1429  -2.9210  -2.8346  -2.1758  -2.0051  -1.5249  -1.1784
    -0.4828  -0.0489   0.5922   0.6831   2.4312   2.4713   2.8888   3.0529

          k = 0.3750 0.3750 0.0000 ( 14860 PWs)   bands (ev):

   -10.7497 -10.0436 -10.0431  -8.4258  -8.0421  -6.0374  -6.0182  -5.9899
    -3.7577  -3.0228  -3.0225  -2.1359  -2.0462  -1.9425  -1.9390  -1.2562
    -0.3553  -0.3553   1.2620   1.3189   1.4727   2.7406   2.7434   2.9652

          k = 0.3750-0.5000 0.0000 ( 14888 PWs)   bands (ev):

   -10.4826 -10.4289  -9.8819  -8.3994  -8.0292  -6.5791  -6.0257  -5.9690
    -3.4382  -2.6575  -2.5090  -2.3980  -2.2638  -2.1745  -1.8118  -1.0852
    -0.3643  -0.0567   0.9686   1.3091   1.7291   1.8851   2.1101   2.8186

          k =-0.5000-0.5000 0.0000 ( 14944 PWs)   bands (ev):

   -10.3918 -10.1793 -10.1750  -8.5774  -7.8153  -6.8696  -6.0291  -6.0282
    -3.1781  -2.8508  -2.3806  -2.3801  -2.0056  -1.9903  -1.9677  -1.0202
    -0.1818  -0.1818   1.0805   1.4087   1.6234   1.7171   1.7180   3.3487

          k =-0.1250 0.1250 0.0000 ( 14811 PWs)   bands (ev):

   -11.6618  -9.6189  -9.2348  -7.9205  -7.5877  -7.5495  -6.3003  -4.1049
    -3.8104  -3.5043  -2.9249  -2.2202  -2.2086  -2.0468  -1.6370  -0.9530
    -0.9209  -0.4833  -0.0712   1.1651   1.3671   1.4419   1.5261   2.2941

          k =-0.1250 0.2500 0.0000 ( 14841 PWs)   bands (ev):

   -11.4827  -9.7093  -9.5542  -7.9517  -7.9000  -6.8521  -6.2509  -4.4364
    -4.0625  -3.4690  -3.0193  -2.3026  -2.1616  -1.7083  -1.6252  -1.3527
    -0.7392  -0.3640   0.0396   0.8763   1.4390   1.6847   1.9227   2.7331

          k =-0.1250 0.3750 0.0000 ( 14837 PWs)   bands (ev):

   -11.1859 -10.2535  -9.4387  -8.3373  -7.6910  -6.2494  -6.1299  -4.9779
    -3.9070  -3.6471  -3.3082  -2.8209  -1.9119  -1.7260  -1.4894  -1.3045
    -0.4649  -0.2120   0.0888   0.2337   2.0910   2.3482   2.7849   3.0969

          k =-0.2500 0.2500 0.0000 ( 14836 PWs)   bands (ev):

   -11.3145  -9.8637  -9.5792  -8.2462  -7.6355  -7.0353  -6.1388  -5.0320
    -3.7376  -3.2534  -2.6851  -2.4809  -1.9428  -1.8405  -1.6414  -1.4991
    -0.1910  -0.1101  -0.0117   0.3147   1.3953   1.7585   1.7661   2.6612

          k =-0.2500 0.3750 0.0000 ( 14855 PWs)   bands (ev):

   -11.0349 -10.2070  -9.5793  -8.2244  -7.9542  -6.6097  -6.0829  -5.4827
    -3.3957  -3.3386  -2.7576  -2.3866  -2.2072  -2.1504  -1.5664  -1.2249
    -0.1586   0.0954   0.1643   0.2647   1.6614   2.1362   2.3104   2.6648

          k =-0.3750 0.3750 0.0000 ( 14860 PWs)   bands (ev):

   -10.7842 -10.2537  -9.7231  -8.4894  -7.7612  -6.8797  -6.0262  -5.8149
    -3.1820  -2.7512  -2.7297  -2.4422  -2.3416  -1.9590  -1.7417  -1.1013
    -0.3524   0.0566   0.5483   0.9431   1.5230   1.8567   2.2250   2.6060

     the Fermi energy is    -1.0315 ev

!    total energy              =    -373.27443549 Ry
     Harris-Foulkes estimate   =    -373.27443549 Ry
     estimated scf accuracy    <          8.6E-09 Ry

     convergence has been achieved in  13 iterations

     negative rho (up, down):  1.281E-06 0.000E+00

     Forces acting on atoms (cartesian axes, Ry/au):

     atom    1 type  1   force =    -0.00539774   -0.00539774    0.00383462
     atom    2 type  1   force =    -0.00496855    0.00002386    0.00051795
     atom    3 type  1   force =     0.00002386   -0.00496855    0.00051795
     atom    4 type  1   force =     0.00063229    0.00063229   -0.00071329
     atom    5 type  1   force =     0.00005973    0.00005973   -0.00006549
     atom    6 type  1   force =     0.00365563    0.00131148   -0.00171362
     atom    7 type  1   force =     0.00131148    0.00365563   -0.00171362
     atom    8 type  1   force =     0.00468328    0.00468328   -0.00066451

     Total force =     0.014302     Total SCF correction =     0.000133


     Computing stress (Cartesian axis) and pressure


     negative rho (up, down):  1.281E-06 0.000E+00
          total   stress  (Ry/bohr**3)                   (kbar)     P=  -11.87
  -0.00011680   0.00002085   0.00000847        -17.18      3.07      1.25
   0.00002085  -0.00011680   0.00000847          3.07    -17.18      1.25
   0.00000847   0.00000847  -0.00000839          1.25      1.25     -1.23


     Damped Dynamics Calculation

     Entering Dynamics:    iteration =     1

ATOMIC_POSITIONS (angstrom)
Si      -0.001171606  -0.001171606   4.383660405
Si      -0.001075511   2.733820208   7.128777892
Si       2.733820208  -0.001075511   7.128777892
Si       2.733960035   2.733960035   4.382592488
Si       1.367017415   1.367017415   5.720330736
Si       1.367723892   4.101047802   8.465910341
Si       4.101047802   1.367723892   8.465910341
Si       4.101704513   4.101704513   5.720190382



     Writing output data file Si.Fd-3m_1ML.save/
     NEW-OLD atomic charge density approx. for the potential

     negative rho (up, down):  1.271E-06 0.000E+00

     total cpu time spent up to now is      890.8 secs

     Self-consistent Calculation

     iteration #  1     ecut=    45.00 Ry     beta= 0.50
     CG style diagonalization
     ethr =  1.00E-06,  avg # of iterations =  2.2

     Threshold (ethr) on eigenvalues was too large:
     Diagonalizing with lowered threshold

     CG style diagonalization
     c_bands:  2 eigenvalues not converged
     c_bands:  1 eigenvalues not converged
     c_bands:  2 eigenvalues not converged
     c_bands:  1 eigenvalues not converged
     c_bands:  1 eigenvalues not converged
     ethr =  1.45E-08,  avg # of iterations =  7.9

     negative rho (up, down):  1.264E-06 0.000E+00

     total cpu time spent up to now is     1072.6 secs

     total energy              =    -373.27451951 Ry
     Harris-Foulkes estimate   =    -373.27450659 Ry
     estimated scf accuracy    <       0.00000281 Ry

     iteration #  2     ecut=    45.00 Ry     beta= 0.50
     CG style diagonalization
     ethr =  8.78E-09,  avg # of iterations =  3.1

     negative rho (up, down):  1.240E-06 0.000E+00

     total cpu time spent up to now is     1137.4 secs

     total energy              =    -373.27451928 Ry
     Harris-Foulkes estimate   =    -373.27451991 Ry
     estimated scf accuracy    <       0.00000120 Ry

     iteration #  3     ecut=    45.00 Ry     beta= 0.50
     CG style diagonalization
     ethr =  3.76E-09,  avg # of iterations =  3.7

     negative rho (up, down):  1.243E-06 0.000E+00

     total cpu time spent up to now is     1226.1 secs

     total energy              =    -373.27451969 Ry
     Harris-Foulkes estimate   =    -373.27451978 Ry
     estimated scf accuracy    <       0.00000042 Ry

     iteration #  4     ecut=    45.00 Ry     beta= 0.50
     CG style diagonalization
     ethr =  1.30E-09,  avg # of iterations =  3.0

     negative rho (up, down):  1.247E-06 0.000E+00

     total cpu time spent up to now is     1272.6 secs

     total energy              =    -373.27451968 Ry
     Harris-Foulkes estimate   =    -373.27451972 Ry
     estimated scf accuracy    <       0.00000015 Ry

     iteration #  5     ecut=    45.00 Ry     beta= 0.50
     CG style diagonalization
     ethr =  4.58E-10,  avg # of iterations =  3.0

     negative rho (up, down):  1.253E-06 0.000E+00

     total cpu time spent up to now is     1338.7 secs

     total energy              =    -373.27451968 Ry
     Harris-Foulkes estimate   =    -373.27451969 Ry
     estimated scf accuracy    <       0.00000003 Ry

     iteration #  6     ecut=    45.00 Ry     beta= 0.50
     CG style diagonalization
     ethr =  9.57E-11,  avg # of iterations =  3.7

     negative rho (up, down):  1.281E-06 0.000E+00

     total cpu time spent up to now is     1392.0 secs

     End of self-consistent calculation

          k = 0.0000 0.0000 0.0000 ( 14817 PWs)   bands (ev):

   -11.7824  -9.6535  -8.4281  -8.4279  -7.6412  -7.6411  -6.3689  -3.8887
    -3.8887  -3.0122  -2.7704  -2.6241  -2.2372  -2.2369  -1.6476  -0.8774
    -0.8766  -0.5993   0.2632   0.7252   0.8791   1.7322   1.7330   1.8542

          k = 0.0000 0.1250 0.0000 ( 14810 PWs)   bands (ev):

   -11.7204  -9.6090  -9.0198  -8.3026  -7.5555  -7.2305  -6.3809  -4.0943
    -3.7708  -3.1983  -3.1822  -2.5188  -2.0828  -2.0670  -1.7370  -1.0902
    -0.7554  -0.6112   0.1783   1.0673   1.1630   1.6683   2.0012   2.1613

          k = 0.0000 0.2500 0.0000 ( 14830 PWs)   bands (ev):

   -11.5353  -9.6817  -9.4781  -8.4871  -7.3270  -6.5290  -6.4339  -4.2304
    -3.8083  -3.7640  -3.5145  -2.8846  -1.7513  -1.6860  -1.6601  -1.2012
    -0.8835  -0.7232   0.1755   1.4015   1.8068   1.9286   2.0037   2.8418

          k = 0.0000 0.3750 0.0000 ( 14830 PWs)   bands (ev):

   -11.2307 -10.2893  -9.2753  -8.7442  -7.0556  -6.5647  -5.8039  -4.4457
    -4.1796  -3.8181  -3.7595  -3.4373  -1.6503  -1.4685  -1.2736  -1.2474
    -0.8790  -0.6107  -0.0098   0.6901   2.5809   2.6532   3.0248   3.2631

          k = 0.0000-0.5000 0.0000 ( 14822 PWs)   bands (ev):

   -10.8351 -10.7882  -9.0350  -9.0047  -6.7853  -6.7829  -5.1213  -5.0937
    -3.9193  -3.8946  -3.8489  -3.8367  -1.5357  -1.5148  -1.2874  -1.2654
    -0.4103  -0.4002  -0.0634  -0.0412   3.0109   3.0210   3.5377   3.5484

          k = 0.1250 0.1250 0.0000 ( 14811 PWs)   bands (ev):

   -11.6553  -9.5130  -9.0078  -9.0073  -6.9417  -6.9416  -6.5091  -4.0651
    -4.0648  -3.5956  -3.2061  -2.6811  -1.8703  -1.7863  -1.7844  -1.1534
    -1.1530  -0.5275   0.3855   0.9750   1.6697   2.1258   2.2485   2.2516

          k = 0.1250 0.2500 0.0000 ( 14841 PWs)   bands (ev):

   -11.4690  -9.6712  -9.3282  -9.0675  -6.7211  -6.6880  -6.3143  -4.1800
    -3.9909  -3.9026  -3.8939  -2.8342  -1.7083  -1.5584  -1.4088  -1.2750
    -1.1688  -0.7691   0.4119   1.3976   1.7879   2.3610   2.6037   2.9595

          k = 0.1250 0.3750 0.0000 ( 14837 PWs)   bands (ev):

   -11.1662 -10.2672  -9.1702  -9.0582  -7.0251  -6.4743  -5.8166  -4.6584
    -3.9756  -3.9614  -3.8349  -3.2333  -1.8364  -1.4403  -1.2267  -1.1592
    -0.9189  -0.7050   0.2028   1.0887   2.2967   2.6989   3.0648   3.1676

          k = 0.1250-0.5000 0.0000 ( 14838 PWs)   bands (ev):

   -10.7922 -10.7402  -9.3001  -8.7219  -7.3726  -6.3212  -5.4252  -5.3943
    -3.8618  -3.6275  -3.5977  -3.4464  -1.9032  -1.5597  -1.3316  -1.2415
    -0.3746  -0.2042  -0.1329   0.3235   2.9534   3.0103   3.3621   3.4073

          k = 0.2500 0.2500 0.0000 ( 14836 PWs)   bands (ev):

   -11.2876  -9.6443  -9.6440  -9.0941  -7.1137  -6.1968  -6.1966  -4.6209
    -4.0384  -3.9370  -3.9361  -2.4379  -1.6606  -1.6200  -1.6194  -1.0863
    -0.9622  -0.9612   0.7403   1.2781   1.7840   2.5081   3.0574   3.0588

          k = 0.2500 0.3750 0.0000 ( 14855 PWs)   bands (ev):

   -10.9995 -10.1812  -9.6086  -8.7777  -7.5522  -6.1239  -5.9472  -5.3410
    -3.9559  -3.5718  -3.4978  -2.5526  -1.9785  -1.5828  -1.5407  -1.3882
    -0.7073  -0.4616   0.7970   1.3347   1.7122   2.7569   3.1228   3.1816

          k = 0.2500-0.5000 0.0000 ( 14824 PWs)   bands (ev):

   -10.6652 -10.6106  -9.5848  -8.3886  -7.9511  -6.0832  -6.0095  -5.7678
    -3.7113  -3.1445  -2.9213  -2.8360  -2.1761  -2.0050  -1.5250  -1.1783
    -0.4823  -0.0484   0.5919   0.6823   2.4302   2.4710   2.8877   3.0530

          k = 0.3750 0.3750 0.0000 ( 14860 PWs)   bands (ev):

   -10.7502 -10.0449 -10.0443  -8.4265  -8.0435  -6.0359  -6.0180  -5.9926
    -3.7580  -3.0243  -3.0239  -2.1361  -2.0457  -1.9430  -1.9398  -1.2561
    -0.3547  -0.3547   1.2623   1.3176   1.4726   2.7399   2.7421   2.9663

          k = 0.3750-0.5000 0.0000 ( 14888 PWs)   bands (ev):

   -10.4812 -10.4320  -9.8832  -8.4003  -8.0305  -6.5804  -6.0255  -5.9690
    -3.4385  -2.6584  -2.5087  -2.3988  -2.2640  -2.1758  -1.8129  -1.0850
    -0.3636  -0.0561   0.9680   1.3086   1.7291   1.8837   2.1089   2.8194

          k =-0.5000-0.5000 0.0000 ( 14944 PWs)   bands (ev):

   -10.3915 -10.1806 -10.1769  -8.5786  -7.8162  -6.8711  -6.0289  -6.0283
    -3.1785  -2.8504  -2.3804  -2.3801  -2.0066  -1.9924  -1.9690  -1.0200
    -0.1811  -0.1811   1.0798   1.4086   1.6230   1.7160   1.7167   3.3472

          k =-0.1250 0.1250 0.0000 ( 14811 PWs)   bands (ev):

   -11.6628  -9.6199  -9.2356  -7.9210  -7.5896  -7.5507  -6.2997  -4.1053
    -3.8106  -3.5050  -2.9267  -2.2196  -2.2086  -2.0474  -1.6389  -0.9534
    -0.9210  -0.4831  -0.0718   1.1644   1.3663   1.4419   1.5260   2.2942

          k =-0.1250 0.2500 0.0000 ( 14841 PWs)   bands (ev):

   -11.4836  -9.7098  -9.5555  -7.9498  -7.9042  -6.8534  -6.2504  -4.4366
    -4.0628  -3.4697  -3.0211  -2.3029  -2.1615  -1.7086  -1.6260  -1.3533
    -0.7395  -0.3639   0.0394   0.8767   1.4380   1.6840   1.9218   2.7335

          k =-0.1250 0.3750 0.0000 ( 14837 PWs)   bands (ev):

   -11.1868 -10.2544  -9.4398  -8.3383  -7.6922  -6.2490  -6.1312  -4.9781
    -3.9074  -3.6477  -3.3099  -2.8221  -1.9118  -1.7263  -1.4895  -1.3046
    -0.4654  -0.2122   0.0891   0.2340   2.0899   2.3476   2.7840   3.0975

          k =-0.2500 0.2500 0.0000 ( 14836 PWs)   bands (ev):

   -11.3155  -9.8642  -9.5805  -8.2473  -7.6366  -7.0370  -6.1383  -5.0322
    -3.7377  -3.2540  -2.6869  -2.4806  -1.9422  -1.8407  -1.6438  -1.4994
    -0.1915  -0.1101  -0.0118   0.3152   1.3946   1.7577   1.7652   2.6618

          k =-0.2500 0.3750 0.0000 ( 14855 PWs)   bands (ev):

   -11.0358 -10.2077  -9.5806  -8.2251  -7.9557  -6.6111  -6.0825  -5.4828
    -3.3961  -3.3388  -2.7594  -2.3864  -2.2076  -2.1513  -1.5671  -1.2250
    -0.1581   0.0956   0.1640   0.2643   1.6604   2.1352   2.3096   2.6653

          k =-0.3750 0.3750 0.0000 ( 14860 PWs)   bands (ev):

   -10.7851 -10.2544  -9.7244  -8.4905  -7.7622  -6.8814  -6.0259  -5.8150
    -3.1825  -2.7506  -2.7300  -2.4424  -2.3436  -1.9587  -1.7439  -1.1012
    -0.3518   0.0570   0.5478   0.9427   1.5220   1.8558   2.2250   2.6050

     the Fermi energy is    -1.0315 ev

!    total energy              =    -373.27451969 Ry
     Harris-Foulkes estimate   =    -373.27451969 Ry
     estimated scf accuracy    <          1.6E-09 Ry

     convergence has been achieved in   6 iterations

     negative rho (up, down):  1.281E-06 0.000E+00

     Forces acting on atoms (cartesian axes, Ry/au):

     atom    1 type  1   force =    -0.00471821   -0.00471821    0.00352687
     atom    2 type  1   force =    -0.00435280    0.00023060    0.00038808
     atom    3 type  1   force =     0.00023060   -0.00435280    0.00038808
     atom    4 type  1   force =     0.00070617    0.00070617   -0.00055566
     atom    5 type  1   force =    -0.00003604   -0.00003604   -0.00004280
     atom    6 type  1   force =     0.00327329    0.00086817   -0.00160072
     atom    7 type  1   force =     0.00086817    0.00327329   -0.00160072
     atom    8 type  1   force =     0.00402882    0.00402882   -0.00050314

     Total force =     0.012544     Total SCF correction =     0.000040


     Computing stress (Cartesian axis) and pressure


     negative rho (up, down):  1.281E-06 0.000E+00
          total   stress  (Ry/bohr**3)                   (kbar)     P=  -11.84
  -0.00011674   0.00002101   0.00000709        -17.17      3.09      1.04
   0.00002101  -0.00011674   0.00000709          3.09    -17.17      1.04
   0.00000709   0.00000709  -0.00000800          1.04      1.04     -1.18


     Entering Dynamics:    iteration =     2

     <vel(dt)|acc(dt)> =   0.99399859

ATOMIC_POSITIONS (angstrom)
Si      -0.006428598  -0.006428598   4.387823041
Si      -0.005938338   2.734356435   7.129124174
Si       2.734356435  -0.005938338   7.129124174
Si       2.734951224   2.734951224   4.382063710
Si       1.366859735   1.366859735   5.720302274
Si       1.371474663   4.101644644   8.463989914
Si       4.101644644   1.371474663   8.463989914
Si       4.106106983   4.106106983   5.719733276



     Writing output data file Si.Fd-3m_1ML.save/
     NEW-OLD atomic charge density approx. for the potential

     negative rho (up, down):  1.248E-06 0.000E+00

     total cpu time spent up to now is     1400.1 secs

     Self-consistent Calculation

     iteration #  1     ecut=    45.00 Ry     beta= 0.50
     CG style diagonalization
     c_bands:  1 eigenvalues not converged
     c_bands:  1 eigenvalues not converged
     c_bands:  1 eigenvalues not converged
     ethr =  1.00E-06,  avg # of iterations =  6.4

     negative rho (up, down):  1.312E-06 0.000E+00

     total cpu time spent up to now is     1542.2 secs

     total energy              =    -373.27474555 Ry
     Harris-Foulkes estimate   =    -373.27465121 Ry
     estimated scf accuracy    <       0.00003329 Ry

     iteration #  2     ecut=    45.00 Ry     beta= 0.50
     CG style diagonalization
     ethr =  1.04E-07,  avg # of iterations =  3.7

     negative rho (up, down):  1.376E-06 0.000E+00

     total cpu time spent up to now is     1610.9 secs

     total energy              =    -373.27475385 Ry
     Harris-Foulkes estimate   =    -373.27476473 Ry
     estimated scf accuracy    <       0.00002636 Ry

     iteration #  3     ecut=    45.00 Ry     beta= 0.50
     CG style diagonalization
     ethr =  8.24E-08,  avg # of iterations =  3.2

     negative rho (up, down):  1.381E-06 0.000E+00

     total cpu time spent up to now is     1666.0 secs

     total energy              =    -373.27475868 Ry
     Harris-Foulkes estimate   =    -373.27475892 Ry
     estimated scf accuracy    <       0.00000132 Ry

     iteration #  4     ecut=    45.00 Ry     beta= 0.50
     CG style diagonalization
     ethr =  4.14E-09,  avg # of iterations =  3.9

     negative rho (up, down):  1.359E-06 0.000E+00

     total cpu time spent up to now is     1745.0 secs

     total energy              =    -373.27475887 Ry
     Harris-Foulkes estimate   =    -373.27475914 Ry
     estimated scf accuracy    <       0.00000081 Ry

     iteration #  5     ecut=    45.00 Ry     beta= 0.50
     CG style diagonalization
     ethr =  2.53E-09,  avg # of iterations =  3.0

     negative rho (up, down):  1.339E-06 0.000E+00

     total cpu time spent up to now is     1801.7 secs

     total energy              =    -373.27475896 Ry
     Harris-Foulkes estimate   =    -373.27475897 Ry
     estimated scf accuracy    <       0.00000004 Ry

     iteration #  6     ecut=    45.00 Ry     beta= 0.50
     CG style diagonalization
     ethr =  1.37E-10,  avg # of iterations =  4.0

     negative rho (up, down):  1.284E-06 0.000E+00

     total cpu time spent up to now is     1865.1 secs

     End of self-consistent calculation

          k = 0.0000 0.0000 0.0000 ( 14817 PWs)   bands (ev):

   -11.7869  -9.6579  -8.4319  -8.4315  -7.6471  -7.6467  -6.3661  -3.8912
    -3.8911  -3.0199  -2.7730  -2.6215  -2.2388  -2.2386  -1.6560  -0.8766
    -0.8758  -0.5994   0.2601   0.7232   0.8749   1.7324   1.7331   1.8513

          k = 0.0000 0.1250 0.0000 ( 14810 PWs)   bands (ev):

   -11.7248  -9.6133  -9.0240  -8.3071  -7.5609  -7.2351  -6.3783  -4.0969
    -3.7735  -3.1973  -3.1923  -2.5191  -2.0846  -2.0677  -1.7431  -1.0901
    -0.7543  -0.6109   0.1752   1.0654   1.1584   1.6675   2.0034   2.1600

          k = 0.0000 0.2500 0.0000 ( 14830 PWs)   bands (ev):

   -11.5397  -9.6856  -9.4831  -8.4922  -7.3314  -6.5327  -6.4322  -4.2335
    -3.8074  -3.7695  -3.5214  -2.8887  -1.7503  -1.6855  -1.6632  -1.2025
    -0.8837  -0.7224   0.1747   1.4030   1.8023   1.9282   2.0000   2.8441

          k = 0.0000 0.3750 0.0000 ( 14830 PWs)   bands (ev):

   -11.2348 -10.2940  -9.2798  -8.7495  -7.0587  -6.5644  -5.8069  -4.4473
    -4.1835  -3.8216  -3.7654  -3.4426  -1.6499  -1.4675  -1.2732  -1.2484
    -0.8798  -0.6109  -0.0097   0.6909   2.5816   2.6515   3.0225   3.2672

          k = 0.0000-0.5000 0.0000 ( 14822 PWs)   bands (ev):

   -10.8290 -10.8032  -9.0323  -9.0173  -6.7873  -6.7841  -5.1207  -5.0988
    -3.9212  -3.8999  -3.8529  -3.8441  -1.5381  -1.5129  -1.2849  -1.2656
    -0.4073  -0.4033  -0.0661  -0.0390   3.0190   3.0222   3.5411   3.5481

          k = 0.1250 0.1250 0.0000 ( 14811 PWs)   bands (ev):

   -11.6597  -9.5171  -9.0128  -9.0123  -6.9456  -6.9453  -6.5074  -4.0686
    -4.0683  -3.6023  -3.2084  -2.6837  -1.8722  -1.7872  -1.7860  -1.1528
    -1.1523  -0.5258   0.3824   0.9740   1.6642   2.1298   2.2470   2.2490

          k = 0.1250 0.2500 0.0000 ( 14841 PWs)   bands (ev):

   -11.4733  -9.6759  -9.3325  -9.0732  -6.7209  -6.6908  -6.3166  -4.1846
    -3.9943  -3.9079  -3.8994  -2.8371  -1.7083  -1.5579  -1.4095  -1.2750
    -1.1683  -0.7679   0.4094   1.3966   1.7890   2.3610   2.6025   2.9599

          k = 0.1250 0.3750 0.0000 ( 14837 PWs)   bands (ev):

   -11.1701 -10.2723  -9.1741  -9.0641  -7.0269  -6.4755  -5.8175  -4.6626
    -3.9790  -3.9677  -3.8407  -3.2361  -1.8367  -1.4391  -1.2255  -1.1582
    -0.9191  -0.7044   0.2009   1.0883   2.2957   2.7032   3.0660   3.1701

          k = 0.1250-0.5000 0.0000 ( 14838 PWs)   bands (ev):

   -10.7880 -10.7532  -9.3050  -8.7267  -7.3760  -6.3209  -5.4245  -5.4006
    -3.8644  -3.6288  -3.6051  -3.4527  -1.9042  -1.5588  -1.3303  -1.2407
    -0.3739  -0.2028  -0.1345   0.3223   2.9545   3.0137   3.3656   3.4056

          k = 0.2500 0.2500 0.0000 ( 14836 PWs)   bands (ev):

   -11.2916  -9.6494  -9.6490  -9.0989  -7.1155  -6.1976  -6.1975  -4.6254
    -4.0420  -3.9433  -3.9425  -2.4402  -1.6605  -1.6196  -1.6193  -1.0846
    -0.9613  -0.9610   0.7375   1.2775   1.7838   2.5122   3.0598   3.0609

          k = 0.2500 0.3750 0.0000 ( 14855 PWs)   bands (ev):

   -11.0030 -10.1866  -9.6139  -8.7822  -7.5557  -6.1236  -5.9472  -5.3463
    -3.9582  -3.5787  -3.5045  -2.5547  -1.9790  -1.5819  -1.5406  -1.3874
    -0.7055  -0.4599   0.7947   1.3330   1.7114   2.7620   3.1243   3.1849

          k = 0.2500-0.5000 0.0000 ( 14824 PWs)   bands (ev):

   -10.6619 -10.6224  -9.5902  -8.3925  -7.9563  -6.0808  -6.0157  -5.7686
    -3.7128  -3.1515  -2.9230  -2.8419  -2.1773  -2.0043  -1.5254  -1.1774
    -0.4799  -0.0462   0.5906   0.6796   2.4253   2.4702   2.8835   3.0546

          k = 0.3750 0.3750 0.0000 ( 14860 PWs)   bands (ev):

   -10.7530 -10.0506 -10.0499  -8.4302  -8.0489  -6.0303  -6.0176  -6.0033
    -3.7594  -3.0305  -3.0299  -2.1378  -2.0437  -1.9446  -1.9424  -1.2552
    -0.3519  -0.3519   1.2619   1.3132   1.4717   2.7363   2.7364   2.9721

          k = 0.3750-0.5000 0.0000 ( 14888 PWs)   bands (ev):

   -10.4754 -10.4456  -9.8889  -8.4052  -8.0352  -6.5859  -6.0249  -5.9693
    -3.4395  -2.6624  -2.5074  -2.4018  -2.2651  -2.1812  -1.8170  -1.0842
    -0.3603  -0.0532   0.9651   1.3067   1.7287   1.8781   2.1036   2.8241

          k =-0.5000-0.5000 0.0000 ( 14944 PWs)   bands (ev):

   -10.3914 -10.1863 -10.1848  -8.5842  -7.8199  -6.8772  -6.0284  -6.0284
    -3.1799  -2.8489  -2.3795  -2.3793  -2.0123  -2.0012  -1.9738  -1.0191
    -0.1778  -0.1777   1.0763   1.4082   1.6211   1.7110   1.7113   3.3421

          k =-0.1250 0.1250 0.0000 ( 14811 PWs)   bands (ev):

   -11.6672  -9.6242  -9.2393  -7.9249  -7.5964  -7.5555  -6.2969  -4.1071
    -3.8119  -3.5079  -2.9348  -2.2182  -2.2071  -2.0499  -1.6473  -0.9554
    -0.9206  -0.4822  -0.0746   1.1617   1.3629   1.4419   1.5264   2.2954

          k =-0.1250 0.2500 0.0000 ( 14841 PWs)   bands (ev):

   -11.4881  -9.7129  -9.5609  -7.9461  -7.9179  -6.8586  -6.2480  -4.4379
    -4.0646  -3.4721  -3.0290  -2.3040  -2.1609  -1.7104  -1.6299  -1.3551
    -0.7408  -0.3632   0.0387   0.8790   1.4344   1.6820   1.9176   2.7365

          k =-0.1250 0.3750 0.0000 ( 14837 PWs)   bands (ev):

   -11.1911 -10.2586  -9.4448  -8.3428  -7.6970  -6.2472  -6.1363  -4.9792
    -3.9092  -3.6500  -3.3173  -2.8270  -1.9110  -1.7276  -1.4894  -1.3051
    -0.4670  -0.2127   0.0903   0.2359   2.0849   2.3456   2.7801   3.1013

          k =-0.2500 0.2500 0.0000 ( 14836 PWs)   bands (ev):

   -11.3200  -9.8671  -9.5858  -8.2526  -7.6408  -7.0435  -6.1359  -5.0335
    -3.7388  -3.2561  -2.6951  -2.4794  -1.9391  -1.8416  -1.6532  -1.5013
    -0.1932  -0.1102  -0.0123   0.3179   1.3918   1.7544   1.7621   2.6654

          k =-0.2500 0.3750 0.0000 ( 14855 PWs)   bands (ev):

   -11.0402 -10.2113  -9.5859  -8.2295  -7.9610  -6.6168  -6.0808  -5.4837
    -3.3976  -3.3399  -2.7674  -2.3853  -2.2102  -2.1538  -1.5694  -1.2254
    -0.1558   0.0967   0.1629   0.2628   1.6559   2.1309   2.3069   2.6686

          k =-0.3750 0.3750 0.0000 ( 14860 PWs)   bands (ev):

   -10.7893 -10.2577  -9.7300  -8.4961  -7.7660  -6.8877  -6.0246  -5.8155
    -3.1841  -2.7485  -2.7314  -2.4430  -2.3523  -1.9567  -1.7529  -1.1011
    -0.3486   0.0587   0.5453   0.9412   1.5177   1.8514   2.2260   2.6016

     the Fermi energy is    -1.0311 ev

!    total energy              =    -373.27475898 Ry
     Harris-Foulkes estimate   =    -373.27475898 Ry
     estimated scf accuracy    <          6.0E-09 Ry

     convergence has been achieved in   6 iterations

     negative rho (up, down):  1.284E-06 0.000E+00

     Forces acting on atoms (cartesian axes, Ry/au):

     atom    1 type  1   force =    -0.00185462   -0.00185462    0.00202065
     atom    2 type  1   force =    -0.00182557    0.00083158   -0.00013320
     atom    3 type  1   force =     0.00083158   -0.00182557   -0.00013320
     atom    4 type  1   force =     0.00080019    0.00080019    0.00002541
     atom    5 type  1   force =    -0.00025884   -0.00025884    0.00006249
     atom    6 type  1   force =     0.00189069   -0.00088558   -0.00102344
     atom    7 type  1   force =    -0.00088558    0.00189069   -0.00102344
     atom    8 type  1   force =     0.00130215    0.00130215    0.00020473

     Total force =     0.005892     Total SCF correction =     0.000045


     Computing stress (Cartesian axis) and pressure


     negative rho (up, down):  1.284E-06 0.000E+00
          total   stress  (Ry/bohr**3)                   (kbar)     P=  -11.69
  -0.00011611   0.00002181   0.00000179        -17.08      3.21      0.26
   0.00002181  -0.00011611   0.00000179          3.21    -17.08      0.26
   0.00000179   0.00000179  -0.00000612          0.26      0.26     -0.90


     Entering Dynamics:    iteration =     3

     <vel(dt)|acc(dt)> =   0.98127842

ATOMIC_POSITIONS (angstrom)
Si      -0.013142698  -0.013142698   4.394047257
Si      -0.012317387   2.736100612   7.129154652
Si       2.736100612  -0.012317387   7.129154652
Si       2.736963220   2.736963220   4.381737209
Si       1.366312356   1.366312356   5.720380928
Si       1.377147336   4.100639024   8.460971786
Si       4.100639024   1.377147336   8.460971786
Si       4.111324286   4.111324286   5.719732209



     Writing output data file Si.Fd-3m_1ML.save/
     NEW-OLD atomic charge density approx. for the potential

     negative rho (up, down):  1.241E-06 0.000E+00

     total cpu time spent up to now is     1873.8 secs

     Self-consistent Calculation

     iteration #  1     ecut=    45.00 Ry     beta= 0.50
     CG style diagonalization
     c_bands:  2 eigenvalues not converged
     c_bands:  1 eigenvalues not converged
     c_bands:  2 eigenvalues not converged
     ethr =  1.00E-06,  avg # of iterations =  7.9

     negative rho (up, down):  1.331E-06 0.000E+00

     total cpu time spent up to now is     2032.6 secs

     total energy              =    -373.27480230 Ry
     Harris-Foulkes estimate   =    -373.27459212 Ry
     estimated scf accuracy    <       0.00008239 Ry

     iteration #  2     ecut=    45.00 Ry     beta= 0.50
     CG style diagonalization
     ethr =  2.57E-07,  avg # of iterations =  3.4

     negative rho (up, down):  1.425E-06 0.000E+00

     total cpu time spent up to now is     2102.9 secs

     total energy              =    -373.27480581 Ry
     Harris-Foulkes estimate   =    -373.27482692 Ry
     estimated scf accuracy    <       0.00004149 Ry

     iteration #  3     ecut=    45.00 Ry     beta= 0.50
     CG style diagonalization
     ethr =  1.30E-07,  avg # of iterations =  3.6

     negative rho (up, down):  1.382E-06 0.000E+00

     total cpu time spent up to now is     2170.5 secs

     total energy              =    -373.27481772 Ry
     Harris-Foulkes estimate   =    -373.27482240 Ry
     estimated scf accuracy    <       0.00001228 Ry

     iteration #  4     ecut=    45.00 Ry     beta= 0.50
     CG style diagonalization
     ethr =  3.84E-08,  avg # of iterations =  3.3

     negative rho (up, down):  1.371E-06 0.000E+00

     total cpu time spent up to now is     2232.7 secs

     total energy              =    -373.27481975 Ry
     Harris-Foulkes estimate   =    -373.27481989 Ry
     estimated scf accuracy    <       0.00000054 Ry

     iteration #  5     ecut=    45.00 Ry     beta= 0.50
     CG style diagonalization
     ethr =  1.68E-09,  avg # of iterations =  3.9

     negative rho (up, down):  1.358E-06 0.000E+00

     total cpu time spent up to now is     2303.3 secs

     total energy              =    -373.27481997 Ry
     Harris-Foulkes estimate   =    -373.27481999 Ry
     estimated scf accuracy    <       0.00000012 Ry

     iteration #  6     ecut=    45.00 Ry     beta= 0.50
     CG style diagonalization
     ethr =  3.89E-10,  avg # of iterations =  3.3

     negative rho (up, down):  1.334E-06 0.000E+00

     total cpu time spent up to now is     2372.6 secs

     total energy              =    -373.27481999 Ry
     Harris-Foulkes estimate   =    -373.27481999 Ry
     estimated scf accuracy    <       0.00000001 Ry

     iteration #  7     ecut=    45.00 Ry     beta= 0.50
     CG style diagonalization
     ethr =  4.50E-11,  avg # of iterations =  3.6

     negative rho (up, down):  1.292E-06 0.000E+00

     total cpu time spent up to now is     2429.2 secs

     End of self-consistent calculation

          k = 0.0000 0.0000 0.0000 ( 14817 PWs)   bands (ev):

   -11.7953  -9.6645  -8.4396  -8.4390  -7.6548  -7.6542  -6.3629  -3.8957
    -3.8952  -3.0322  -2.7797  -2.6169  -2.2421  -2.2420  -1.6677  -0.8757
    -0.8745  -0.5998   0.2556   0.7177   0.8686   1.7328   1.7343   1.8483

          k = 0.0000 0.1250 0.0000 ( 14810 PWs)   bands (ev):

   -11.7332  -9.6199  -9.0317  -8.3152  -7.5683  -7.2419  -6.3755  -4.1016
    -3.7780  -3.2066  -3.1986  -2.5201  -2.0883  -2.0696  -1.7513  -1.0900
    -0.7528  -0.6103   0.1706   1.0598   1.1515   1.6672   2.0063   2.1575

          k = 0.0000 0.2500 0.0000 ( 14830 PWs)   bands (ev):

   -11.5480  -9.6936  -9.4898  -8.5002  -7.3381  -6.5387  -6.4308  -4.2391
    -3.8096  -3.7763  -3.5319  -2.8949  -1.7498  -1.6866  -1.6664  -1.2046
    -0.8837  -0.7210   0.1734   1.4045   1.7933   1.9238   1.9981   2.8434

          k = 0.0000 0.3750 0.0000 ( 14830 PWs)   bands (ev):

   -11.2430 -10.3022  -9.2868  -8.7573  -7.0640  -6.5651  -5.8121  -4.4512
    -4.1902  -3.8276  -3.7736  -3.4504  -1.6499  -1.4661  -1.2749  -1.2478
    -0.8809  -0.6112  -0.0094   0.6915   2.5789   2.6506   3.0166   3.2700

          k = 0.0000-0.5000 0.0000 ( 14822 PWs)   bands (ev):

   -10.8275 -10.8213  -9.0353  -9.0289  -6.7914  -6.7865  -5.1304  -5.0979
    -3.9263  -3.9097  -3.8610  -3.8496  -1.5440  -1.5086  -1.2823  -1.2644
    -0.4106  -0.4004  -0.0721  -0.0346   3.0237   3.0291   3.5380   3.5516

          k = 0.1250 0.1250 0.0000 ( 14811 PWs)   bands (ev):

   -11.6680  -9.5237  -9.0211  -9.0204  -6.9517  -6.9513  -6.5058  -4.0745
    -4.0740  -3.6126  -3.2110  -2.6903  -1.8753  -1.7895  -1.7889  -1.1521
    -1.1512  -0.5234   0.3780   0.9698   1.6546   2.1323   2.2467   2.2491

          k = 0.1250 0.2500 0.0000 ( 14841 PWs)   bands (ev):

   -11.4815  -9.6843  -9.3390  -9.0816  -6.7216  -6.6956  -6.3209  -4.1919
    -4.0006  -3.9139  -3.9072  -2.8437  -1.7085  -1.5573  -1.4111  -1.2761
    -1.1671  -0.7658   0.4058   1.3924   1.7894   2.3589   2.6022   2.9608

          k = 0.1250 0.3750 0.0000 ( 14837 PWs)   bands (ev):

   -11.1780 -10.2809  -9.1820  -9.0710  -7.0303  -6.4784  -5.8207  -4.6684
    -3.9858  -3.9756  -3.8489  -3.2423  -1.8373  -1.4376  -1.2238  -1.1570
    -0.9197  -0.7039   0.1981   1.0869   2.2913   2.7085   3.0666   3.1730

          k = 0.1250-0.5000 0.0000 ( 14838 PWs)   bands (ev):

   -10.7912 -10.7664  -9.3127  -8.7336  -7.3816  -6.3216  -5.4322  -5.4025
    -3.8685  -3.6342  -3.6150  -3.4613  -1.9058  -1.5577  -1.3285  -1.2394
    -0.3738  -0.2014  -0.1361   0.3202   2.9521   3.0193   3.3670   3.4039

          k = 0.2500 0.2500 0.0000 ( 14836 PWs)   bands (ev):

   -11.2996  -9.6580  -9.6575  -9.1054  -7.1191  -6.2002  -6.2001  -4.6314
    -4.0477  -3.9524  -3.9516  -2.4464  -1.6617  -1.6190  -1.6178  -1.0823
    -0.9608  -0.9607   0.7334   1.2739   1.7825   2.5173   3.0621   3.0635

          k = 0.2500 0.3750 0.0000 ( 14855 PWs)   bands (ev):

   -11.0106 -10.1954  -9.6225  -8.7887  -7.5615  -6.1247  -5.9492  -5.3529
    -3.9617  -3.5888  -3.5140  -2.5603  -1.9798  -1.5818  -1.5390  -1.3861
    -0.7036  -0.4578   0.7912   1.3298   1.7077   2.7687   3.1248   3.1872

          k = 0.2500-0.5000 0.0000 ( 14824 PWs)   bands (ev):

   -10.6664 -10.6340  -9.5985  -8.3990  -7.9635  -6.0804  -6.0230  -5.7710
    -3.7151  -3.1623  -2.9283  -2.8501  -2.1792  -2.0031  -1.5256  -1.1764
    -0.4770  -0.0433   0.5877   0.6759   2.4156   2.4679   2.8754   3.0573

          k = 0.3750 0.3750 0.0000 ( 14860 PWs)   bands (ev):

   -10.7601 -10.0594 -10.0588  -8.4366  -8.0562  -6.0344  -6.0186  -6.0074
    -3.7613  -3.0395  -3.0388  -2.1434  -2.0424  -1.9464  -1.9447  -1.2538
    -0.3483  -0.3483   1.2581   1.3090   1.4683   2.7265   2.7274   2.9808

          k = 0.3750-0.5000 0.0000 ( 14888 PWs)   bands (ev):

   -10.4766 -10.4600  -9.8976  -8.4141  -8.0408  -6.5934  -6.0250  -5.9711
    -3.4408  -2.6686  -2.5064  -2.4061  -2.2700  -2.1880  -1.8224  -1.0831
    -0.3557  -0.0493   0.9596   1.3042   1.7263   1.8693   2.0950   2.8300

          k =-0.5000-0.5000 0.0000 ( 14944 PWs)   bands (ev):

   -10.3968 -10.1952 -10.1945  -8.5936  -7.8251  -6.8853  -6.0295  -6.0293
    -3.1815  -2.8477  -2.3782  -2.3779  -2.0237  -2.0138  -1.9803  -1.0178
    -0.1731  -0.1729   1.0700   1.4058   1.6177   1.7026   1.7037   3.3358

          k =-0.1250 0.1250 0.0000 ( 14811 PWs)   bands (ev):

   -11.6757  -9.6310  -9.2464  -7.9339  -7.6040  -7.5622  -6.2938  -4.1112
    -3.8163  -3.5119  -2.9471  -2.2197  -2.2023  -2.0545  -1.6591  -0.9598
    -0.9183  -0.4809  -0.0793   1.1578   1.3567   1.4412   1.5283   2.2956

          k =-0.1250 0.2500 0.0000 ( 14841 PWs)   bands (ev):

   -11.4966  -9.7201  -9.5680  -7.9563  -7.9232  -6.8658  -6.2454  -4.4422
    -4.0690  -3.4756  -3.0410  -2.3058  -2.1605  -1.7144  -1.6353  -1.3571
    -0.7426  -0.3623   0.0371   0.8819   1.4285   1.6803   1.9106   2.7418

          k =-0.1250 0.3750 0.0000 ( 14837 PWs)   bands (ev):

   -11.1995 -10.2663  -9.4522  -8.3500  -7.7041  -6.2460  -6.1432  -4.9830
    -3.9142  -3.6534  -3.3283  -2.8340  -1.9105  -1.7295  -1.4889  -1.3063
    -0.4696  -0.2138   0.0921   0.2384   2.0759   2.3438   2.7725   3.1078

          k =-0.2500 0.2500 0.0000 ( 14836 PWs)   bands (ev):

   -11.3285  -9.8739  -9.5933  -8.2617  -7.6466  -7.0519  -6.1334  -5.0375
    -3.7429  -3.2588  -2.7076  -2.4785  -1.9343  -1.8444  -1.6650  -1.5047
    -0.1964  -0.1107  -0.0133   0.3218   1.3877   1.7483   1.7586   2.6717

          k =-0.2500 0.3750 0.0000 ( 14855 PWs)   bands (ev):

   -11.0486 -10.2184  -9.5938  -8.2384  -7.9670  -6.6245  -6.0792  -5.4870
    -3.3997  -3.3443  -2.7794  -2.3845  -2.2154  -2.1555  -1.5721  -1.2266
    -0.1531   0.0974   0.1607   0.2614   1.6487   2.1234   2.3038   2.6745

          k =-0.3750 0.3750 0.0000 ( 14860 PWs)   bands (ev):

   -10.7977 -10.2645  -9.7383  -8.5054  -7.7714  -6.8959  -6.0236  -5.8182
    -3.1860  -2.7476  -2.7356  -2.4437  -2.3651  -1.9533  -1.7654  -1.1011
    -0.3443   0.0607   0.5409   0.9391   1.5108   1.8436   2.2280   2.5975

     the Fermi energy is    -1.0308 ev

!    total energy              =    -373.27481999 Ry
     Harris-Foulkes estimate   =    -373.27481999 Ry
     estimated scf accuracy    <          1.3E-09 Ry

     convergence has been achieved in   7 iterations

     negative rho (up, down):  1.292E-06 0.000E+00

     Forces acting on atoms (cartesian axes, Ry/au):

     atom    1 type  1   force =     0.00185213    0.00185213   -0.00025167
     atom    2 type  1   force =     0.00136279    0.00106089   -0.00071628
     atom    3 type  1   force =     0.00106089    0.00136279   -0.00071628
     atom    4 type  1   force =     0.00051125    0.00051125    0.00065185
     atom    5 type  1   force =    -0.00020011   -0.00020011    0.00023910
     atom    6 type  1   force =     0.00059703   -0.00302525   -0.00015933
     atom    7 type  1   force =    -0.00302525    0.00059703   -0.00015933
     atom    8 type  1   force =    -0.00215873   -0.00215873    0.00111196

     Total force =     0.006680     Total SCF correction =     0.000028


     Computing stress (Cartesian axis) and pressure


     negative rho (up, down):  1.292E-06 0.000E+00
          total   stress  (Ry/bohr**3)                   (kbar)     P=  -11.40
  -0.00011487   0.00002297  -0.00000415        -16.90      3.38     -0.61
   0.00002297  -0.00011487  -0.00000415          3.38    -16.90     -0.61
  -0.00000415  -0.00000415  -0.00000270         -0.61     -0.61     -0.40


     Entering Dynamics:    iteration =     4

     <vel(dt)|acc(dt)> =  -0.88144773

ATOMIC_POSITIONS (angstrom)
Si      -0.012320480  -0.012320480   4.393518857
Si      -0.011602568   2.736131874   7.129036128
Si       2.736131874  -0.011602568   7.129036128
Si       2.736885397   2.736885397   4.381866766
Si       1.366326542   1.366326542   5.720414055
Si       1.376810722   4.100226449   8.461182130
Si       4.100226449   1.376810722   8.461182130
Si       4.110568812   4.110568812   5.719914283



     Writing output data file Si.Fd-3m_1ML.save/
     NEW-OLD atomic charge density approx. for the potential

     negative rho (up, down):  1.297E-06 0.000E+00

     total cpu time spent up to now is     2437.7 secs

     Self-consistent Calculation

     iteration #  1     ecut=    45.00 Ry     beta= 0.50
     CG style diagonalization
     ethr =  1.00E-06,  avg # of iterations =  2.0

     Threshold (ethr) on eigenvalues was too large:
     Diagonalizing with lowered threshold

     CG style diagonalization
     c_bands:  2 eigenvalues not converged
     c_bands:  4 eigenvalues not converged
     c_bands:  1 eigenvalues not converged
     c_bands:  2 eigenvalues not converged
     ethr =  9.89E-09,  avg # of iterations =  7.2

     negative rho (up, down):  1.284E-06 0.000E+00

     total cpu time spent up to now is     2631.5 secs

     total energy              =    -373.27483766 Ry
     Harris-Foulkes estimate   =    -373.27486908 Ry
     estimated scf accuracy    <       0.00000122 Ry

     iteration #  2     ecut=    45.00 Ry     beta= 0.50
     CG style diagonalization
     ethr =  3.80E-09,  avg # of iterations =  3.3

     negative rho (up, down):  1.265E-06 0.000E+00

     total cpu time spent up to now is     2700.0 secs

     total energy              =    -373.27483766 Ry
     Harris-Foulkes estimate   =    -373.27483800 Ry
     estimated scf accuracy    <       0.00000064 Ry

     iteration #  3     ecut=    45.00 Ry     beta= 0.50
     CG style diagonalization
     ethr =  2.00E-09,  avg # of iterations =  3.7

     negative rho (up, down):  1.269E-06 0.000E+00

     total cpu time spent up to now is     2760.6 secs

     total energy              =    -373.27483787 Ry
     Harris-Foulkes estimate   =    -373.27483795 Ry
     estimated scf accuracy    <       0.00000034 Ry

     iteration #  4     ecut=    45.00 Ry     beta= 0.50
     CG style diagonalization
     ethr =  1.05E-09,  avg # of iterations =  3.0

     negative rho (up, down):  1.273E-06 0.000E+00

     total cpu time spent up to now is     2820.5 secs

     total energy              =    -373.27483787 Ry
     Harris-Foulkes estimate   =    -373.27483789 Ry
     estimated scf accuracy    <       0.00000006 Ry

     iteration #  5     ecut=    45.00 Ry     beta= 0.50
     CG style diagonalization
     ethr =  1.96E-10,  avg # of iterations =  3.2

     negative rho (up, down):  1.291E-06 0.000E+00

     total cpu time spent up to now is     2866.4 secs

     End of self-consistent calculation

          k = 0.0000 0.0000 0.0000 ( 14817 PWs)   bands (ev):

   -11.7950  -9.6638  -8.4392  -8.4387  -7.6542  -7.6537  -6.3634  -3.8955
    -3.8951  -3.0313  -2.7798  -2.6174  -2.2421  -2.2420  -1.6665  -0.8758
    -0.8746  -0.6000   0.2561   0.7176   0.8693   1.7331   1.7343   1.8484

          k = 0.0000 0.1250 0.0000 ( 14810 PWs)   bands (ev):

   -11.7329  -9.6192  -9.0314  -8.3146  -7.5679  -7.2415  -6.3760  -4.1014
    -3.7777  -3.2054  -3.1992  -2.5202  -2.0882  -2.0698  -1.7504  -1.0900
    -0.7530  -0.6105   0.1711   1.0596   1.1521   1.6674   2.0058   2.1576

          k = 0.0000 0.2500 0.0000 ( 14830 PWs)   bands (ev):

   -11.5476  -9.6932  -9.4891  -8.4995  -7.3377  -6.5384  -6.4311  -4.2389
    -3.8099  -3.7758  -3.5311  -2.8945  -1.7501  -1.6870  -1.6660  -1.2045
    -0.8838  -0.7211   0.1736   1.4042   1.7940   1.9236   1.9982   2.8433

          k = 0.0000 0.3750 0.0000 ( 14830 PWs)   bands (ev):

   -11.2426 -10.3019  -9.2860  -8.7566  -7.0638  -6.5653  -5.8119  -4.4513
    -4.1899  -3.8271  -3.7730  -3.4498  -1.6500  -1.4663  -1.2750  -1.2478
    -0.8809  -0.6112  -0.0094   0.6913   2.5790   2.6506   3.0162   3.2692

          k = 0.0000-0.5000 0.0000 ( 14822 PWs)   bands (ev):

   -10.8263 -10.8217  -9.0335  -9.0292  -6.7912  -6.7866  -5.1298  -5.0984
    -3.9265  -3.9085  -3.8603  -3.8494  -1.5439  -1.5086  -1.2829  -1.2643
    -0.4101  -0.4010  -0.0722  -0.0346   3.0235   3.0276   3.5381   3.5506

          k = 0.1250 0.1250 0.0000 ( 14811 PWs)   bands (ev):

   -11.6677  -9.5230  -9.0206  -9.0200  -6.9514  -6.9510  -6.5062  -4.0742
    -4.0737  -3.6118  -3.2107  -2.6904  -1.8750  -1.7895  -1.7888  -1.1522
    -1.1513  -0.5236   0.3784   0.9695   1.6553   2.1319   2.2468   2.2492

          k = 0.1250 0.2500 0.0000 ( 14841 PWs)   bands (ev):

   -11.4811  -9.6838  -9.3383  -9.0810  -6.7217  -6.6954  -6.3208  -4.1914
    -4.0002  -3.9132  -3.9066  -2.8437  -1.7085  -1.5573  -1.4112  -1.2762
    -1.1672  -0.7660   0.4062   1.3921   1.7892   2.3588   2.6022   2.9603

          k = 0.1250 0.3750 0.0000 ( 14837 PWs)   bands (ev):

   -11.1777 -10.2805  -9.1813  -9.0704  -7.0303  -6.4785  -5.8209  -4.6678
    -3.9852  -3.9750  -3.8482  -3.2424  -1.8373  -1.4378  -1.2240  -1.1572
    -0.9198  -0.7041   0.1984   1.0869   2.2909   2.7077   3.0661   3.1727

          k = 0.1250-0.5000 0.0000 ( 14838 PWs)   bands (ev):

   -10.7906 -10.7663  -9.3120  -8.7329  -7.3814  -6.3218  -5.4318  -5.4026
    -3.8682  -3.6345  -3.6141  -3.4605  -1.9057  -1.5579  -1.3286  -1.2396
    -0.3740  -0.2016  -0.1359   0.3202   2.9522   3.0185   3.3663   3.4035

          k = 0.2500 0.2500 0.0000 ( 14836 PWs)   bands (ev):

   -11.2993  -9.6575  -9.6570  -9.1047  -7.1190  -6.2003  -6.2002  -4.6308
    -4.0473  -3.9517  -3.9508  -2.4466  -1.6616  -1.6190  -1.6179  -1.0826
    -0.9610  -0.9610   0.7338   1.2735   1.7823   2.5165   3.0615   3.0631

          k = 0.2500 0.3750 0.0000 ( 14855 PWs)   bands (ev):

   -11.0104 -10.1949  -9.6218  -8.7880  -7.5613  -6.1249  -5.9494  -5.3522
    -3.9614  -3.5879  -3.5132  -2.5605  -1.9798  -1.5819  -1.5390  -1.3862
    -0.7040  -0.4582   0.7916   1.3298   1.7073   2.7678   3.1242   3.1866

          k = 0.2500-0.5000 0.0000 ( 14824 PWs)   bands (ev):

   -10.6657 -10.6340  -9.5977  -8.3983  -7.9632  -6.0806  -6.0224  -5.7714
    -3.7149  -3.1614  -2.9286  -2.8493  -2.1791  -2.0033  -1.5255  -1.1766
    -0.4774  -0.0437   0.5880   0.6760   2.4163   2.4677   2.8760   3.0570

          k = 0.3750 0.3750 0.0000 ( 14860 PWs)   bands (ev):

   -10.7599 -10.0588 -10.0582  -8.4358  -8.0559  -6.0337  -6.0189  -6.0077
    -3.7612  -3.0387  -3.0381  -2.1438  -2.0427  -1.9462  -1.9443  -1.2539
    -0.3488  -0.3488   1.2587   1.3089   1.4680   2.7273   2.7281   2.9798

          k = 0.3750-0.5000 0.0000 ( 14888 PWs)   bands (ev):

   -10.4760 -10.4599  -9.8970  -8.4134  -8.0404  -6.5926  -6.0253  -5.9714
    -3.4407  -2.6681  -2.5066  -2.4058  -2.2704  -2.1873  -1.8219  -1.0832
    -0.3563  -0.0498   0.9599   1.3044   1.7262   1.8700   2.0956   2.8290

          k =-0.5000-0.5000 0.0000 ( 14944 PWs)   bands (ev):

   -10.3966 -10.1946 -10.1940  -8.5929  -7.8246  -6.8844  -6.0298  -6.0296
    -3.1813  -2.8481  -2.3783  -2.3780  -2.0234  -2.0127  -1.9799  -1.0179
    -0.1737  -0.1735   1.0704   1.4056   1.6179   1.7032   1.7044   3.3359

          k =-0.1250 0.1250 0.0000 ( 14811 PWs)   bands (ev):

   -11.6753  -9.6303  -9.2462  -7.9331  -7.6037  -7.5616  -6.2943  -4.1113
    -3.8165  -3.5116  -2.9462  -2.2197  -2.2030  -2.0544  -1.6578  -0.9598
    -0.9183  -0.4810  -0.0790   1.1582   1.3570   1.4415   1.5278   2.2951

          k =-0.1250 0.2500 0.0000 ( 14841 PWs)   bands (ev):

   -11.4962  -9.7199  -9.5673  -7.9543  -7.9240  -6.8653  -6.2459  -4.4425
    -4.0691  -3.4753  -3.0401  -2.3056  -2.1607  -1.7144  -1.6347  -1.3570
    -0.7425  -0.3624   0.0371   0.8815   1.4291   1.6805   1.9109   2.7414

          k =-0.1250 0.3750 0.0000 ( 14837 PWs)   bands (ev):

   -11.1991 -10.2661  -9.4514  -8.3492  -7.7037  -6.2463  -6.1427  -4.9833
    -3.9143  -3.6531  -3.3275  -2.8333  -1.9107  -1.7294  -1.4889  -1.3064
    -0.4694  -0.2138   0.0919   0.2380   2.0766   2.3440   2.7731   3.1072

          k =-0.2500 0.2500 0.0000 ( 14836 PWs)   bands (ev):

   -11.3280  -9.8737  -9.5926  -8.2609  -7.6461  -7.0511  -6.1339  -5.0377
    -3.7432  -3.2586  -2.7066  -2.4788  -1.9348  -1.8441  -1.6639  -1.5046
    -0.1962  -0.1108  -0.0133   0.3213   1.3881   1.7488   1.7590   2.6713

          k =-0.2500 0.3750 0.0000 ( 14855 PWs)   bands (ev):

   -11.0482 -10.2183  -9.5930  -8.2376  -7.9665  -6.6237  -6.0796  -5.4873
    -3.3995  -3.3447  -2.7785  -2.3848  -2.2147  -2.1555  -1.5718  -1.2266
    -0.1535   0.0971   0.1609   0.2615   1.6493   2.1240   2.3042   2.6741

          k =-0.3750 0.3750 0.0000 ( 14860 PWs)   bands (ev):

   -10.7972 -10.2644  -9.7376  -8.5047  -7.7709  -6.8950  -6.0240  -5.8185
    -3.1857  -2.7479  -2.7362  -2.4436  -2.3641  -1.9536  -1.7642  -1.1012
    -0.3448   0.0604   0.5411   0.9393   1.5114   1.8442   2.2278   2.5980

     the Fermi energy is    -1.0309 ev

!    total energy              =    -373.27483788 Ry
     Harris-Foulkes estimate   =    -373.27483788 Ry
     estimated scf accuracy    <          2.4E-09 Ry

     convergence has been achieved in   5 iterations

     negative rho (up, down):  1.291E-06 0.000E+00

     Forces acting on atoms (cartesian axes, Ry/au):

     atom    1 type  1   force =     0.00134739    0.00134739    0.00002316
     atom    2 type  1   force =     0.00096316    0.00090638   -0.00060579
     atom    3 type  1   force =     0.00090638    0.00096316   -0.00060579
     atom    4 type  1   force =     0.00046229    0.00046229    0.00054585
     atom    5 type  1   force =    -0.00013631   -0.00013631    0.00022301
     atom    6 type  1   force =     0.00088787   -0.00276072   -0.00024842
     atom    7 type  1   force =    -0.00276072    0.00088787   -0.00024842
     atom    8 type  1   force =    -0.00167005   -0.00167005    0.00091641

     Total force =     0.005660     Total SCF correction =     0.000038


     Computing stress (Cartesian axis) and pressure


     negative rho (up, down):  1.291E-06 0.000E+00
          total   stress  (Ry/bohr**3)                   (kbar)     P=  -11.42
  -0.00011497   0.00002279  -0.00000319        -16.91      3.35     -0.47
   0.00002279  -0.00011497  -0.00000319          3.35    -16.91     -0.47
  -0.00000319  -0.00000319  -0.00000294         -0.47     -0.47     -0.43


     Entering Dynamics:    iteration =     5

     <vel(dt)|acc(dt)> =   0.78072135

ATOMIC_POSITIONS (angstrom)
Si      -0.010901072  -0.010901072   4.393220413
Si      -0.010508649   2.736711633   7.128549648
Si       2.736711633  -0.010508649   7.128549648
Si       2.737108567   2.737108567   4.382315491
Si       1.366297660   1.366297660   5.720602388
Si       1.377391894   4.097967352   8.461134359
Si       4.097967352   1.377391894   8.461134359
Si       4.108959363   4.108959363   5.720644172



     Writing output data file Si.Fd-3m_1ML.save/
     NEW-OLD atomic charge density approx. for the potential

     negative rho (up, down):  1.285E-06 0.000E+00

     total cpu time spent up to now is     2875.1 secs

     Self-consistent Calculation

     iteration #  1     ecut=    45.00 Ry     beta= 0.50
     CG style diagonalization
     ethr =  1.00E-06,  avg # of iterations =  2.9

     Threshold (ethr) on eigenvalues was too large:
     Diagonalizing with lowered threshold

     CG style diagonalization
     c_bands:  2 eigenvalues not converged
     c_bands:  2 eigenvalues not converged
     c_bands:  1 eigenvalues not converged
     ethr =  3.78E-09,  avg # of iterations = 12.2

     negative rho (up, down):  1.286E-06 0.000E+00

     total cpu time spent up to now is     3159.3 secs

     total energy              =    -373.27488081 Ry
     Harris-Foulkes estimate   =    -373.27492387 Ry
     estimated scf accuracy    <       0.00000865 Ry

     iteration #  2     ecut=    45.00 Ry     beta= 0.50
     CG style diagonalization
     ethr =  2.70E-08,  avg # of iterations =  3.0

     negative rho (up, down):  1.284E-06 0.000E+00

     total cpu time spent up to now is     3213.3 secs

     total energy              =    -373.27488076 Ry
     Harris-Foulkes estimate   =    -373.27488165 Ry
     estimated scf accuracy    <       0.00000232 Ry

     iteration #  3     ecut=    45.00 Ry     beta= 0.50
     CG style diagonalization
     ethr =  7.25E-09,  avg # of iterations =  3.2

     negative rho (up, down):  1.281E-06 0.000E+00

     total cpu time spent up to now is     3281.1 secs

     total energy              =    -373.27488112 Ry
     Harris-Foulkes estimate   =    -373.27488114 Ry
     estimated scf accuracy    <       0.00000012 Ry

     iteration #  4     ecut=    45.00 Ry     beta= 0.50
     CG style diagonalization
     ethr =  3.70E-10,  avg # of iterations =  4.2

     negative rho (up, down):  1.283E-06 0.000E+00

     total cpu time spent up to now is     3362.8 secs

     total energy              =    -373.27488120 Ry
     Harris-Foulkes estimate   =    -373.27488120 Ry
     estimated scf accuracy    <       0.00000001 Ry

     iteration #  5     ecut=    45.00 Ry     beta= 0.50
     CG style diagonalization
     ethr =  3.95E-11,  avg # of iterations =  3.4

     negative rho (up, down):  1.290E-06 0.000E+00

     total cpu time spent up to now is     3411.1 secs

     End of self-consistent calculation

          k = 0.0000 0.0000 0.0000 ( 14817 PWs)   bands (ev):

   -11.7955  -9.6624  -8.4396  -8.4392  -7.6534  -7.6530  -6.3639  -3.8956
    -3.8950  -3.0308  -2.7818  -2.6175  -2.2425  -2.2425  -1.6644  -0.8758
    -0.8744  -0.6002   0.2572   0.7159   0.8705   1.7347   1.7358   1.8491

          k = 0.0000 0.1250 0.0000 ( 14810 PWs)   bands (ev):

   -11.7334  -9.6178  -9.0319  -8.3143  -7.5675  -7.2411  -6.3765  -4.1017
    -3.7774  -3.2038  -3.2016  -2.5203  -2.0888  -2.0703  -1.7488  -1.0898
    -0.7529  -0.6103   0.1720   1.0580   1.1532   1.6689   2.0051   2.1581

          k = 0.0000 0.2500 0.0000 ( 14830 PWs)   bands (ev):

   -11.5482  -9.6936  -9.4878  -8.4987  -7.3376  -6.5383  -6.4317  -4.2394
    -3.8118  -3.7747  -3.5305  -2.8939  -1.7505  -1.6886  -1.6644  -1.2042
    -0.8835  -0.7203   0.1741   1.4040   1.7948   1.9216   1.9994   2.8439

          k = 0.0000 0.3750 0.0000 ( 14830 PWs)   bands (ev):

   -11.2432 -10.3024  -9.2847  -8.7554  -7.0640  -6.5659  -5.8121  -4.4524
    -4.1902  -3.8265  -3.7723  -3.4492  -1.6502  -1.4661  -1.2759  -1.2469
    -0.8806  -0.6108  -0.0090   0.6911   2.5787   2.6515   3.0142   3.2674

          k = 0.0000-0.5000 0.0000 ( 14822 PWs)   bands (ev):

   -10.8278 -10.8212  -9.0318  -9.0285  -6.7913  -6.7873  -5.1310  -5.0985
    -3.9286  -3.9062  -3.8598  -3.8486  -1.5456  -1.5065  -1.2841  -1.2629
    -0.4094  -0.4012  -0.0744  -0.0324   3.0238   3.0258   3.5374   3.5492

          k = 0.1250 0.1250 0.0000 ( 14811 PWs)   bands (ev):

   -11.6683  -9.5216  -9.0205  -9.0200  -6.9513  -6.9510  -6.5068  -4.0741
    -4.0734  -3.6112  -3.2097  -2.6925  -1.8746  -1.7900  -1.7888  -1.1520
    -1.1509  -0.5235   0.3796   0.9675   1.6560   2.1314   2.2479   2.2506

          k = 0.1250 0.2500 0.0000 ( 14841 PWs)   bands (ev):

   -11.4818  -9.6839  -9.3370  -9.0805  -6.7222  -6.6957  -6.3213  -4.1911
    -4.0002  -3.9115  -3.9059  -2.8455  -1.7082  -1.5570  -1.4118  -1.2764
    -1.1669  -0.7657   0.4072   1.3902   1.7886   2.3584   2.6033   2.9601

          k = 0.1250 0.3750 0.0000 ( 14837 PWs)   bands (ev):

   -11.1784 -10.2807  -9.1803  -9.0692  -7.0307  -6.4789  -5.8220  -4.6668
    -3.9848  -3.9740  -3.8475  -3.2440  -1.8370  -1.4376  -1.2238  -1.1572
    -0.9198  -0.7043   0.1993   1.0867   2.2887   2.7070   3.0651   3.1730

          k = 0.1250-0.5000 0.0000 ( 14838 PWs)   bands (ev):

   -10.7912 -10.7668  -9.3108  -8.7317  -7.3816  -6.3224  -5.4332  -5.4018
    -3.8677  -3.6372  -3.6124  -3.4591  -1.9055  -1.5578  -1.3284  -1.2394
    -0.3747  -0.2016  -0.1349   0.3203   2.9519   3.0180   3.3644   3.4035

          k = 0.2500 0.2500 0.0000 ( 14836 PWs)   bands (ev):

   -11.3000  -9.6571  -9.6568  -9.1034  -7.1194  -6.2011  -6.2010  -4.6295
    -4.0468  -3.9508  -3.9499  -2.4488  -1.6614  -1.6184  -1.6173  -1.0824
    -0.9616  -0.9614   0.7349   1.2715   1.7819   2.5158   3.0607   3.0625

          k = 0.2500 0.3750 0.0000 ( 14855 PWs)   bands (ev):

   -11.0111 -10.1949  -9.6212  -8.7867  -7.5615  -6.1257  -5.9507  -5.3508
    -3.9610  -3.5870  -3.5120  -2.5627  -1.9793  -1.5821  -1.5381  -1.3860
    -0.7045  -0.4585   0.7925   1.3297   1.7053   2.7671   3.1231   3.1856

          k = 0.2500-0.5000 0.0000 ( 14824 PWs)   bands (ev):

   -10.6660 -10.6348  -9.5968  -8.3970  -7.9633  -6.0813  -6.0211  -5.7728
    -3.7145  -3.1608  -2.9309  -2.8477  -2.1788  -2.0031  -1.5248  -1.1765
    -0.4779  -0.0439   0.5889   0.6760   2.4171   2.4667   2.8768   3.0570

          k = 0.3750 0.3750 0.0000 ( 14860 PWs)   bands (ev):

   -10.7608 -10.0584 -10.0580  -8.4345  -8.0560  -6.0341  -6.0200  -6.0067
    -3.7608  -3.0377  -3.0371  -2.1464  -2.0434  -1.9453  -1.9429  -1.2536
    -0.3493  -0.3492   1.2599   1.3086   1.4664   2.7283   2.7288   2.9787

          k = 0.3750-0.5000 0.0000 ( 14888 PWs)   bands (ev):

   -10.4770 -10.4599  -9.8963  -8.4130  -8.0394  -6.5910  -6.0262  -5.9727
    -3.4402  -2.6674  -2.5069  -2.4050  -2.2732  -2.1862  -1.8207  -1.0830
    -0.3568  -0.0502   0.9601   1.3050   1.7252   1.8709   2.0966   2.8278

          k =-0.5000-0.5000 0.0000 ( 14944 PWs)   bands (ev):

   -10.3978 -10.1941 -10.1938  -8.5924  -7.8238  -6.8826  -6.0307  -6.0307
    -3.1802  -2.8490  -2.3778  -2.3774  -2.0257  -2.0116  -1.9790  -1.0176
    -0.1742  -0.1739   1.0707   1.4047   1.6183   1.7041   1.7057   2.7362

          k =-0.1250 0.1250 0.0000 ( 14811 PWs)   bands (ev):

   -11.6759  -9.6289  -9.2472  -7.9321  -7.6037  -7.5607  -6.2949  -4.1122
    -3.8181  -3.5111  -2.9456  -2.2201  -2.2037  -2.0547  -1.6558  -0.9610
    -0.9167  -0.4806  -0.0786   1.1595   1.3569   1.4430   1.5272   2.2941

          k =-0.1250 0.2500 0.0000 ( 14841 PWs)   bands (ev):

   -11.4967  -9.7207  -9.5660  -7.9512  -7.9256  -6.8646  -6.2465  -4.4442
    -4.0705  -3.4747  -3.0394  -2.3050  -2.1613  -1.7150  -1.6334  -1.3565
    -0.7421  -0.3620   0.0372   0.8813   1.4302   1.6818   1.9114   2.7425

          k =-0.1250 0.3750 0.0000 ( 14837 PWs)   bands (ev):

   -11.1995 -10.2668  -9.4501  -8.3480  -7.7037  -6.2469  -6.1418  -4.9849
    -3.9160  -3.6526  -3.3267  -2.8320  -1.9111  -1.7288  -1.4885  -1.3065
    -0.4690  -0.2136   0.0920   0.2379   2.0773   2.3450   2.7739   3.1079

          k =-0.2500 0.2500 0.0000 ( 14836 PWs)   bands (ev):

   -11.3285  -9.8749  -9.5913  -8.2603  -7.6452  -7.0499  -6.1345  -5.0394
    -3.7452  -3.2577  -2.7059  -2.4795  -1.9347  -1.8436  -1.6621  -1.5046
    -0.1961  -0.1107  -0.0132   0.3212   1.3894   1.7498   1.7603   2.6723

          k =-0.2500 0.3750 0.0000 ( 14855 PWs)   bands (ev):

   -11.0485 -10.2193  -9.5919  -8.2371  -7.9656  -6.6223  -6.0802  -5.4889
    -3.3988  -3.3471  -2.7776  -2.3852  -2.2135  -2.1551  -1.5709  -1.2266
    -0.1542   0.0966   0.1615   0.2623   1.6504   2.1250   2.3055   2.6749

          k =-0.3750 0.3750 0.0000 ( 14860 PWs)   bands (ev):

   -10.7974 -10.2656  -9.7367  -8.5042  -7.7700  -6.8933  -6.0248  -5.8199
    -3.1847  -2.7486  -2.7391  -2.4430  -2.3629  -1.9532  -1.7625  -1.1010
    -0.3453   0.0600   0.5414   0.9398   1.5125   1.8453   2.2281   2.5993

     the Fermi energy is    -1.0308 ev

!    total energy              =    -373.27488120 Ry
     Harris-Foulkes estimate   =    -373.27488120 Ry
     estimated scf accuracy    <          3.8E-09 Ry

     convergence has been achieved in   5 iterations

     negative rho (up, down):  1.290E-06 0.000E+00

     Forces acting on atoms (cartesian axes, Ry/au):

     atom    1 type  1   force =     0.00042888    0.00042888    0.00044208
     atom    2 type  1   force =     0.00028592    0.00035773   -0.00033218
     atom    3 type  1   force =     0.00035773    0.00028592   -0.00033218
     atom    4 type  1   force =     0.00017872    0.00017872    0.00026387
     atom    5 type  1   force =     0.00014414    0.00014414    0.00019958
     atom    6 type  1   force =     0.00172787   -0.00237197   -0.00034192
     atom    7 type  1   force =    -0.00237197    0.00172787   -0.00034192
     atom    8 type  1   force =    -0.00075131   -0.00075131    0.00044268

     Total force =     0.004495     Total SCF correction =     0.000038


     Computing stress (Cartesian axis) and pressure


     negative rho (up, down):  1.290E-06 0.000E+00
          total   stress  (Ry/bohr**3)                   (kbar)     P=  -11.42
  -0.00011495   0.00002248  -0.00000109        -16.91      3.31     -0.16
   0.00002248  -0.00011495  -0.00000109          3.31    -16.91     -0.16
  -0.00000109  -0.00000109  -0.00000290         -0.16     -0.16     -0.43


     Entering Dynamics:    iteration =     6

     <vel(dt)|acc(dt)> =   0.90975328

ATOMIC_POSITIONS (angstrom)
Si      -0.009009262  -0.009009262   4.394046031
Si      -0.009296278   2.738324513   7.127377153
Si       2.738324513  -0.009296278   7.127377153
Si       2.737964169   2.737964169   4.383298778
Si       1.366317605   1.366317605   5.721138635
Si       1.380969951   4.091561488   8.460267125
Si       4.091561488   1.380969951   8.460267125
Si       4.106194562   4.106194562   5.722378477



     Writing output data file Si.Fd-3m_1ML.save/
     NEW-OLD atomic charge density approx. for the potential

     negative rho (up, down):  1.268E-06 0.000E+00

     total cpu time spent up to now is     3419.5 secs

     Self-consistent Calculation

     iteration #  1     ecut=    45.00 Ry     beta= 0.50
     CG style diagonalization
     c_bands:  1 eigenvalues not converged
     ethr =  1.00E-06,  avg # of iterations =  4.9

     Threshold (ethr) on eigenvalues was too large:
     Diagonalizing with lowered threshold

     CG style diagonalization
     c_bands:  1 eigenvalues not converged
     c_bands:  4 eigenvalues not converged
     c_bands:  3 eigenvalues not converged
     c_bands:  5 eigenvalues not converged
     c_bands:  1 eigenvalues not converged
     ethr =  3.14E-08,  avg # of iterations =  8.9

     negative rho (up, down):  1.277E-06 0.000E+00

     total cpu time spent up to now is     3668.9 secs

     total energy              =    -373.27496917 Ry
     Harris-Foulkes estimate   =    -373.27501069 Ry
     estimated scf accuracy    <       0.00003655 Ry

     iteration #  2     ecut=    45.00 Ry     beta= 0.50
     CG style diagonalization
     ethr =  1.14E-07,  avg # of iterations =  3.0

     negative rho (up, down):  1.273E-06 0.000E+00

     total cpu time spent up to now is     3721.4 secs

     total energy              =    -373.27496699 Ry
     Harris-Foulkes estimate   =    -373.27497159 Ry
     estimated scf accuracy    <       0.00001199 Ry

     iteration #  3     ecut=    45.00 Ry     beta= 0.50
     CG style diagonalization
     ethr =  3.75E-08,  avg # of iterations =  3.3

     negative rho (up, down):  1.265E-06 0.000E+00

     total cpu time spent up to now is     3787.7 secs

     total energy              =    -373.27496937 Ry
     Harris-Foulkes estimate   =    -373.27496953 Ry
     estimated scf accuracy    <       0.00000071 Ry

     iteration #  4     ecut=    45.00 Ry     beta= 0.50
     CG style diagonalization
     ethr =  2.20E-09,  avg # of iterations =  3.8

     negative rho (up, down):  1.269E-06 0.000E+00

     total cpu time spent up to now is     3866.9 secs

     total energy              =    -373.27496969 Ry
     Harris-Foulkes estimate   =    -373.27496971 Ry
     estimated scf accuracy    <       0.00000021 Ry

     iteration #  5     ecut=    45.00 Ry     beta= 0.50
     CG style diagonalization
     ethr =  6.49E-10,  avg # of iterations =  3.2

     negative rho (up, down):  1.275E-06 0.000E+00

     total cpu time spent up to now is     3932.1 secs

     total energy              =    -373.27496972 Ry
     Harris-Foulkes estimate   =    -373.27496972 Ry
     estimated scf accuracy    <       0.00000002 Ry

     iteration #  6     ecut=    45.00 Ry     beta= 0.50
     CG style diagonalization
     ethr =  5.79E-11,  avg # of iterations =  3.8

     negative rho (up, down):  1.288E-06 0.000E+00

     total cpu time spent up to now is     3996.3 secs

     End of self-consistent calculation

          k = 0.0000 0.0000 0.0000 ( 14817 PWs)   bands (ev):

   -11.7992  -9.6609  -8.4427  -8.4426  -7.6531  -7.6531  -6.3645  -3.8970
    -3.8959  -3.0326  -2.7885  -2.6168  -2.2445  -2.2442  -1.6622  -0.8759
    -0.8735  -0.6007   0.2590   0.7104   0.8722   1.7384   1.7398   1.8502

          k = 0.0000 0.1250 0.0000 ( 14810 PWs)   bands (ev):

   -11.7371  -9.6163  -9.0351  -8.3158  -7.5682  -7.2418  -6.3772  -4.1038
    -3.7779  -3.2079  -3.2034  -2.5210  -2.0911  -2.0723  -1.7469  -1.0895
    -0.7526  -0.6092   0.1731   1.0525   1.1542   1.6722   2.0045   2.1589

          k = 0.0000 0.2500 0.0000 ( 14830 PWs)   bands (ev):

   -11.5518  -9.6969  -9.4863  -8.4988  -7.3390  -6.5397  -6.4327  -4.2420
    -3.8177  -3.7731  -3.5314  -2.8939  -1.7516  -1.6933  -1.6609  -1.2045
    -0.8827  -0.7180   0.1753   1.4038   1.7940   1.9156   2.0022   2.8455

          k = 0.0000 0.3750 0.0000 ( 14830 PWs)   bands (ev):

   -11.2467 -10.3057  -9.2833  -8.7547  -7.0658  -6.5674  -5.8140  -4.4561
    -4.1928  -3.8267  -3.7723  -3.4496  -1.6508  -1.4655  -1.2792  -1.2437
    -0.8800  -0.6099  -0.0077   0.6910   2.5771   2.6534   3.0081   3.2636

          k = 0.0000-0.5000 0.0000 ( 14822 PWs)   bands (ev):

   -10.8343 -10.8217  -9.0333  -9.0246  -6.7933  -6.7889  -5.1377  -5.0972
    -3.9361  -3.9026  -3.8606  -3.8471  -1.5523  -1.4995  -1.2870  -1.2585
    -0.4090  -0.4006  -0.0823  -0.0244   3.0233   3.0256   3.5344   3.5472

          k = 0.1250 0.1250 0.0000 ( 14811 PWs)   bands (ev):

   -11.6720  -9.5200  -9.0223  -9.0222  -6.9525  -6.9525  -6.5078  -4.0756
    -4.0741  -3.6123  -3.2077  -2.6992  -1.8751  -1.7918  -1.7889  -1.1515
    -1.1497  -0.5225   0.3814   0.9617   1.6551   2.1305   2.2502   2.2544

          k = 0.1250 0.2500 0.0000 ( 14841 PWs)   bands (ev):

   -11.4855  -9.6864  -9.3355  -9.0814  -6.7239  -6.6975  -6.3236  -4.1925
    -4.0024  -3.9093  -3.9049  -2.8515  -1.7078  -1.5562  -1.4135  -1.2775
    -1.1657  -0.7641   0.4089   1.3844   1.7874   2.3567   2.6055   2.9525

          k = 0.1250 0.3750 0.0000 ( 14837 PWs)   bands (ev):

   -11.1821 -10.2835  -9.1803  -9.0677  -7.0325  -6.4808  -5.8256  -4.6657
    -3.9857  -3.9731  -3.8476  -3.2495  -1.8365  -1.4371  -1.2229  -1.1571
    -0.9198  -0.7046   0.2008   1.0861   2.2822   2.7066   3.0630   3.1747

          k = 0.1250-0.5000 0.0000 ( 14838 PWs)   bands (ev):

   -10.7953 -10.7695  -9.3101  -8.7303  -7.3835  -6.3241  -5.4398  -5.3988
    -3.8674  -3.6461  -3.6102  -3.4575  -1.9055  -1.5572  -1.3276  -1.2385
    -0.3766  -0.2014  -0.1326   0.3203   2.9503   3.0184   3.3588   3.4044

          k = 0.2500 0.2500 0.0000 ( 14836 PWs)   bands (ev):

   -11.3038  -9.6586  -9.6585  -9.1020  -7.1213  -6.2036  -6.2035  -4.6280
    -4.0471  -3.9508  -3.9496  -2.4558  -1.6622  -1.6168  -1.6148  -1.0816
    -0.9627  -0.9619   0.7366   1.2655   1.7808   2.5152   3.0592   3.0617

          k = 0.2500 0.3750 0.0000 ( 14855 PWs)   bands (ev):

[...]

          k = 0.2500 0.2500 0.0000 ( 14836 PWs)   bands (ev):

   -11.5313  -9.7511  -9.5201  -9.1047  -7.6584  -6.0914  -5.8000  -4.9026
    -4.1883  -3.8459  -3.5759  -2.8039  -2.2279  -1.5735  -1.1133  -1.0839
    -0.6796  -0.3228   1.2004   1.2820   1.8204   2.3988   2.8574   3.1533

          k = 0.2500 0.3750 0.0000 ( 14855 PWs)   bands (ev):

   -11.2485 -10.1905  -9.4574  -9.0423  -7.9584  -6.0441  -5.6712  -5.1204
    -4.1174  -3.7182  -3.3748  -2.7542  -2.2468  -1.4959  -1.2154  -0.9718
    -0.7249   0.0850   1.1522   1.4481   2.0570   2.3963   2.7585   3.1148

          k = 0.2500-0.5000 0.0000 ( 14824 PWs)   bands (ev):

   -11.0118 -10.5340  -9.3650  -8.9874  -8.0304  -6.2290  -5.7626  -5.1887
    -3.9613  -3.6728  -2.9840  -2.6600  -2.2444  -1.6024  -1.3413  -1.0613
    -0.4324   0.3540   0.8551   1.6471   1.8221   2.3051   2.7574   3.1171

          k = 0.3750 0.3750 0.0000 ( 14860 PWs)   bands (ev):

   -10.9675 -10.0619  -9.9085  -9.1010  -8.1000  -6.2780  -5.4759  -5.4544
    -4.1262  -3.2789  -3.0798  -2.5030  -1.9126  -1.6160  -1.2902  -1.2211
    -0.4019   0.3739   1.0856   1.4512   2.1724   2.4245   2.7277   2.8526

          k = 0.3750-0.5000 0.0000 ( 14888 PWs)   bands (ev):

   -10.7085 -10.3943  -9.7235  -9.3117  -7.9657  -6.5790  -5.6188  -5.4200
    -4.0162  -3.0844  -2.8861  -2.1584  -1.8725  -1.7879  -1.3139  -1.2558
    -0.2090   0.5268   1.1577   1.3226   1.6984   2.0885   2.6120   3.0080

          k =-0.5000-0.5000 0.0000 ( 14944 PWs)   bands (ev):

   -10.4078 -10.3553 -10.0405  -9.4393  -7.8837  -6.7412  -5.6501  -5.4381
    -4.0331  -2.8313  -2.7835  -2.0675  -1.8520  -1.7516  -1.2815  -1.1797
    -0.0830   0.5902   0.9947   1.1716   1.6665   1.8944   2.9634   3.1107

          k =-0.1250 0.1250 0.0000 ( 14811 PWs)   bands (ev):

   -11.8984  -9.7394  -9.2269  -7.8973  -7.4714  -7.3690  -6.3974  -4.5984
    -4.3093  -3.1718  -3.0349  -2.6867  -2.3120  -1.7347  -1.5099  -1.2908
    -0.5968  -0.0493   0.4726   1.1889   1.3061   1.6175   2.2827   2.6969

          k =-0.1250 0.2500 0.0000 ( 14841 PWs)   bands (ev):

   -11.7161  -9.8282  -9.5186  -8.1154  -7.7255  -6.8185  -6.1911  -4.6179
    -4.4546  -3.2285  -3.0983  -2.7769  -2.2402  -1.9220  -1.4171  -1.0049
    -0.5487  -0.0926   0.4194   1.2921   1.6594   1.8823   2.3543   3.0708

          k =-0.1250 0.3750 0.0000 ( 14837 PWs)   bands (ev):

   -11.4322 -10.3262  -9.3747  -8.4061  -7.8235  -6.3703  -6.0242  -4.7434
    -4.3559  -3.5722  -3.0248  -3.0096  -2.4727  -1.7374  -1.3114  -0.6882
    -0.5587  -0.1273   0.4610   1.4757   1.7024   2.4039   2.8656   3.0775

          k =-0.2500 0.2500 0.0000 ( 14836 PWs)   bands (ev):

   -11.5347  -9.8734  -9.6183  -8.5793  -7.6021  -6.8650  -5.9597  -4.8966
    -4.2786  -3.3681  -2.8485  -2.4627  -2.4157  -1.6585  -1.4191  -0.9333
    -0.6199  -0.0581   0.5361   1.4808   1.4930   1.7665   2.4039   2.9596

          k =-0.2500 0.3750 0.0000 ( 14855 PWs)   bands (ev):

   -11.2498 -10.2520  -9.4756  -8.8446  -7.8453  -6.5705  -5.8203  -5.1402
    -3.9411  -3.6130  -2.9233  -2.4488  -2.0594  -1.8586  -1.3599  -1.0221
    -0.4408   0.1509   0.6963   1.4976   1.7372   2.0167   2.5485   2.8229

          k =-0.3750 0.3750 0.0000 ( 14860 PWs)   bands (ev):

   -10.9592 -10.2730  -9.5278  -9.3215  -7.8115  -6.7343  -5.6687  -5.3725
    -3.8363  -3.3684  -2.8089  -2.2246  -1.9771  -1.4908  -1.3650  -1.3534
    -0.3326   0.4108   0.9508   1.4699   1.8120   1.8363   2.4325   2.6987

     the Fermi energy is    -0.7001 ev

!    total energy              =    -373.35457560 Ry
     Harris-Foulkes estimate   =    -373.35457560 Ry
     estimated scf accuracy    <          8.0E-09 Ry

     convergence has been achieved in   6 iterations

     negative rho (up, down):  1.829E-06 0.000E+00

     Forces acting on atoms (cartesian axes, Ry/au):

     atom    1 type  1   force =     0.00018968    0.00018968    0.00142848
     atom    2 type  1   force =     0.00101967    0.00082657   -0.00183113
     atom    3 type  1   force =     0.00082657    0.00101967   -0.00183113
     atom    4 type  1   force =    -0.00022698   -0.00022698    0.00084893
     atom    5 type  1   force =     0.00095439    0.00095439    0.00135229
     atom    6 type  1   force =    -0.00086697   -0.00090853   -0.00110993
     atom    7 type  1   force =    -0.00090853   -0.00086697   -0.00110993
     atom    8 type  1   force =    -0.00098782   -0.00098782    0.00225242

     Total force =     0.005420     Total SCF correction =     0.000127


     Computing stress (Cartesian axis) and pressure


     negative rho (up, down):  1.829E-06 0.000E+00
          total   stress  (Ry/bohr**3)                   (kbar)     P=  -10.29
  -0.00010015   0.00005739  -0.00000114        -14.73      8.44     -0.17
   0.00005739  -0.00010015  -0.00000114          8.44    -14.73     -0.17
  -0.00000114  -0.00000114  -0.00000951         -0.17     -0.17     -1.40


     Entering Dynamics:    iteration =    21

     <vel(dt)|acc(dt)> =   0.91624259

ATOMIC_POSITIONS (angstrom)
Si      -0.010343389  -0.010343389   4.570672561
Si      -0.011770920   2.736479648   7.193584699
Si       2.736479648  -0.011770920   7.193584699
Si       2.737289187   2.737289187   4.302622502
Si       1.408915619   1.408915619   5.793746561
Si       1.900425622   3.575517617   8.274949563
Si       3.575517617   1.900425622   8.274949563
Si       4.066513364   4.066513364   5.792040329



     Writing output data file Si.Fd-3m_1ML.save/
     NEW-OLD atomic charge density approx. for the potential

     negative rho (up, down):  1.714E-06 0.000E+00

     total cpu time spent up to now is    15116.7 secs

     Self-consistent Calculation

     iteration #  1     ecut=    45.00 Ry     beta= 0.50
     CG style diagonalization
     c_bands:  1 eigenvalues not converged
     ethr =  1.00E-06,  avg # of iterations =  6.0

     Threshold (ethr) on eigenvalues was too large:
     Diagonalizing with lowered threshold

     CG style diagonalization
     c_bands:  1 eigenvalues not converged
     ethr =  9.34E-08,  avg # of iterations =  5.7

     negative rho (up, down):  1.964E-06 0.000E+00

     total cpu time spent up to now is    15351.2 secs

     total energy              =    -373.35465489 Ry
     Harris-Foulkes estimate   =    -373.35375653 Ry
     estimated scf accuracy    <       0.00004190 Ry

     iteration #  2     ecut=    45.00 Ry     beta= 0.50
     CG style diagonalization
     ethr =  1.31E-07,  avg # of iterations =  3.0

     negative rho (up, down):  2.167E-06 0.000E+00

     total cpu time spent up to now is    15434.8 secs

     total energy              =    -373.35465036 Ry
     Harris-Foulkes estimate   =    -373.35465748 Ry
     estimated scf accuracy    <       0.00001763 Ry

     iteration #  3     ecut=    45.00 Ry     beta= 0.50
     CG style diagonalization
     ethr =  5.51E-08,  avg # of iterations =  3.6

     negative rho (up, down):  2.097E-06 0.000E+00

     total cpu time spent up to now is    15506.4 secs

     total energy              =    -373.35465484 Ry
     Harris-Foulkes estimate   =    -373.35465568 Ry
     estimated scf accuracy    <       0.00000263 Ry

     iteration #  4     ecut=    45.00 Ry     beta= 0.50
     CG style diagonalization
     ethr =  8.23E-09,  avg # of iterations =  3.3

     negative rho (up, down):  2.112E-06 0.000E+00

     total cpu time spent up to now is    15571.1 secs

     total energy              =    -373.35465511 Ry
     Harris-Foulkes estimate   =    -373.35465524 Ry
     estimated scf accuracy    <       0.00000064 Ry

     iteration #  5     ecut=    45.00 Ry     beta= 0.50
     CG style diagonalization
     ethr =  2.01E-09,  avg # of iterations =  3.1

     negative rho (up, down):  2.126E-06 0.000E+00

     total cpu time spent up to now is    15634.4 secs

     total energy              =    -373.35465511 Ry
     Harris-Foulkes estimate   =    -373.35465516 Ry
     estimated scf accuracy    <       0.00000023 Ry

     iteration #  6     ecut=    45.00 Ry     beta= 0.50
     CG style diagonalization
     ethr =  7.12E-10,  avg # of iterations =  3.3

     negative rho (up, down):  2.074E-06 0.000E+00

     total cpu time spent up to now is    15713.3 secs

     total energy              =    -373.35465514 Ry
     Harris-Foulkes estimate   =    -373.35465515 Ry
     estimated scf accuracy    <       0.00000002 Ry

     iteration #  7     ecut=    45.00 Ry     beta= 0.50
     CG style diagonalization
     ethr =  5.17E-11,  avg # of iterations =  4.1

     negative rho (up, down):  1.886E-06 0.000E+00

     total cpu time spent up to now is    15774.8 secs

     End of self-consistent calculation

          k = 0.0000 0.0000 0.0000 ( 14817 PWs)   bands (ev):

   -12.0532  -9.7927  -8.4399  -8.3709  -7.4247  -7.3825  -6.6978  -4.5553
    -4.2125  -3.4287  -2.7701  -2.6316  -2.2792  -1.8455  -1.5390  -1.2747
    -0.5965  -0.2620   0.6067   0.8755   1.2213   1.4251   2.1936   2.2919

          k = 0.0000 0.1250 0.0000 ( 14810 PWs)   bands (ev):

   -11.9909  -9.7646  -8.9851  -8.1815  -7.4364  -7.0871  -6.6374  -4.6411
    -4.1419  -3.4539  -2.9144  -2.7604  -2.3309  -1.7205  -1.5686  -1.3375
    -0.4737  -0.2498   0.7299   0.9407   1.2121   1.6537   2.3264   2.5673

          k = 0.0000 0.2500 0.0000 ( 14830 PWs)   bands (ev):

   -11.8077  -9.8763  -9.4018  -8.3093  -7.3729  -6.8559  -6.2539  -4.6696
    -4.1867  -3.5898  -3.1735  -2.9185  -2.5447  -1.7678  -1.3820  -1.1201
    -0.3572  -0.2518   0.5013   1.3467   1.7263   2.1160   2.3612   3.0457

          k = 0.0000 0.3750 0.0000 ( 14830 PWs)   bands (ev):

   -11.5239 -10.3862  -9.2698  -8.5782  -7.3075  -6.7733  -5.8236  -4.5332
    -4.3025  -3.8368  -3.3660  -3.1516  -2.8061  -1.5442  -1.2132  -0.6742
    -0.3973  -0.3132   0.2798   1.5736   1.8140   2.7410   2.9919   3.1171

          k = 0.0000-0.5000 0.0000 ( 14822 PWs)   bands (ev):

   -11.2979 -10.7112  -9.0930  -8.7894  -7.2807  -6.7359  -5.6758  -4.3931
    -4.2999  -4.0175  -3.4285  -3.3240  -2.9203  -1.3590  -0.9426  -0.8039
    -0.3575  -0.1484   0.0481   1.3743   2.0838   2.7098   3.2008   3.2807

          k = 0.1250 0.1250 0.0000 ( 14811 PWs)   bands (ev):

   -11.9281  -9.7213  -8.9413  -8.8418  -7.0047  -6.7719  -6.7218  -4.6785
    -4.0551  -3.7002  -3.1811  -2.6276  -2.5314  -1.6543  -1.3710  -1.3682
    -0.5009  -0.3452   0.9702   0.9869   1.2091   1.9822   2.6162   2.7790

          k = 0.1250 0.2500 0.0000 ( 14841 PWs)   bands (ev):

   -11.7448  -9.8287  -9.3210  -8.8833  -7.2880  -6.5511  -6.0949  -4.6524
    -4.2109  -3.8502  -3.3652  -2.9030  -2.5188  -1.6284  -1.3226  -0.9764
    -0.5523  -0.3948   0.8864   1.3993   1.5507   2.2659   2.7810   3.0714

          k = 0.1250 0.3750 0.0000 ( 14837 PWs)   bands (ev):

   -11.4611 -10.3408  -9.1546  -8.9673  -7.5542  -6.3569  -5.7961  -4.6357
    -4.1727  -3.9679  -3.5263  -3.0481  -2.6625  -1.5221  -1.0892  -0.7646
    -0.6223  -0.2302   0.6253   1.7476   1.8585   2.4139   2.9072   3.1683

          k = 0.1250-0.5000 0.0000 ( 14838 PWs)   bands (ev):

   -11.2333 -10.6713  -9.1698  -8.7965  -7.7416  -6.2441  -5.8687  -4.7364
    -4.1719  -3.9135  -3.2807  -2.9840  -2.8566  -1.4090  -1.1080  -0.8247
    -0.5476   0.0508   0.3915   1.4352   2.0356   2.6149   3.0921   3.3584

          k = 0.2500 0.2500 0.0000 ( 14836 PWs)   bands (ev):

   -11.5623  -9.7696  -9.5468  -9.1077  -7.6708  -6.1055  -5.8163  -4.9028
    -4.1981  -3.8656  -3.5889  -2.8087  -2.2589  -1.5809  -1.1075  -1.0778
    -0.6677  -0.3203   1.1847   1.2808   1.8220   2.3986   2.8449   3.1572

          k = 0.2500 0.3750 0.0000 ( 14855 PWs)   bands (ev):

   -11.2794 -10.2159  -9.4789  -9.0448  -7.9725  -6.0574  -5.6810  -5.1219
    -4.1262  -3.7440  -3.3879  -2.7567  -2.2701  -1.5029  -1.2091  -0.9613
    -0.7214   0.0902   1.1488   1.4348   2.0506   2.3814   2.7602   3.1068

          k = 0.2500-0.5000 0.0000 ( 14824 PWs)   bands (ev):

   -11.0425 -10.5614  -9.3769  -9.0023  -8.0406  -6.2379  -5.7673  -5.2001
    -3.9701  -3.7027  -2.9888  -2.6700  -2.2599  -1.6051  -1.3380  -1.0538
    -0.4273   0.3552   0.8547   1.6392   1.8086   2.2972   2.7511   3.0965

          k = 0.3750 0.3750 0.0000 ( 14860 PWs)   bands (ev):

   -10.9984 -10.0848  -9.9352  -9.1087  -8.1093  -6.2860  -5.4796  -5.4626
    -4.1348  -3.3112  -3.0824  -2.5087  -1.9275  -1.6181  -1.2957  -1.2131
    -0.3984   0.3832   1.0685   1.4408   2.1538   2.4242   2.7222   2.8458

          k = 0.3750-0.5000 0.0000 ( 14888 PWs)   bands (ev):

   -10.7386 -10.4220  -9.7464  -9.3240  -7.9710  -6.5831  -5.6256  -5.4292
    -4.0233  -3.1215  -2.8805  -2.1687  -1.8720  -1.7943  -1.3189  -1.2578
    -0.2047   0.5320   1.1446   1.3066   1.6876   2.0800   2.6086   2.9959

          k =-0.5000-0.5000 0.0000 ( 14944 PWs)   bands (ev):

   -10.4383 -10.3824 -10.0672  -9.4502  -7.8880  -6.7437  -5.6602  -5.4447
    -4.0400  -2.8245  -2.8214  -2.0687  -1.8408  -1.7652  -1.2758  -1.2055
    -0.0789   0.5972   0.9733   1.1563   1.6562   1.8869   2.9586   3.1088

          k =-0.1250 0.1250 0.0000 ( 14811 PWs)   bands (ev):

   -11.9293  -9.7425  -9.2556  -7.9180  -7.4910  -7.3748  -6.3963  -4.6228
    -4.3263  -3.1793  -3.0602  -2.7031  -2.3165  -1.7343  -1.5116  -1.2940
    -0.5994  -0.0397   0.4679   1.1910   1.2868   1.6226   2.2852   2.7165

          k =-0.1250 0.2500 0.0000 ( 14841 PWs)   bands (ev):

   -11.7468  -9.8486  -9.5307  -8.1359  -7.7343  -6.8301  -6.1933  -4.6399
    -4.4803  -3.2373  -3.1111  -2.7928  -2.2493  -1.9229  -1.4134  -1.0104
    -0.5484  -0.0837   0.4184   1.2955   1.6578   1.8812   2.3418   3.0887

          k =-0.1250 0.3750 0.0000 ( 14837 PWs)   bands (ev):

   -11.4628 -10.3537  -9.3798  -8.4188  -7.8391  -6.3797  -6.0335  -4.7606
    -4.3835  -3.5780  -3.0372  -3.0214  -2.4797  -1.7466  -1.3048  -0.6852
    -0.5585  -0.1212   0.4663   1.4753   1.7016   2.3919   2.8616   3.0686

          k =-0.2500 0.2500 0.0000 ( 14836 PWs)   bands (ev):

   -11.5651  -9.9032  -9.6232  -8.6022  -7.6065  -6.8737  -5.9592  -4.9186
    -4.3129  -3.3761  -2.8458  -2.4840  -2.4299  -1.6498  -1.4257  -0.9337
    -0.6199  -0.0586   0.5378   1.4809   1.4924   1.7729   2.3966   2.9765

          k =-0.2500 0.3750 0.0000 ( 14855 PWs)   bands (ev):

   -11.2798 -10.2808  -9.4820  -8.8680  -7.8510  -6.5766  -5.8222  -5.1588
    -3.9753  -3.6205  -2.9225  -2.4684  -2.0674  -1.8613  -1.3592  -1.0171
    -0.4372   0.1438   0.7009   1.4971   1.7363   2.0132   2.5438   2.8177

          k =-0.3750 0.3750 0.0000 ( 14860 PWs)   bands (ev):

   -10.9884 -10.3032  -9.5364  -9.3461  -7.8160  -6.7377  -5.6726  -5.3869
    -3.8426  -3.4082  -2.8005  -2.2304  -1.9970  -1.4781  -1.3691  -1.3624
    -0.3308   0.4062   0.9506   1.4653   1.8008   1.8339   2.4308   2.6931

     the Fermi energy is    -0.6960 ev

!    total energy              =    -373.35465516 Ry
     Harris-Foulkes estimate   =    -373.35465515 Ry
     estimated scf accuracy    <          3.5E-09 Ry

     convergence has been achieved in   7 iterations

     negative rho (up, down):  1.886E-06 0.000E+00

     Forces acting on atoms (cartesian axes, Ry/au):

     atom    1 type  1   force =     0.00039050    0.00039050    0.00020467
     atom    2 type  1   force =     0.00114350    0.00054870   -0.00102129
     atom    3 type  1   force =     0.00054870    0.00114350   -0.00102129
     atom    4 type  1   force =    -0.00005370   -0.00005370    0.00027854
     atom    5 type  1   force =     0.00099200    0.00099200    0.00011474
     atom    6 type  1   force =    -0.00029195   -0.00140200    0.00049090
     atom    7 type  1   force =    -0.00140200   -0.00029195    0.00049090
     atom    8 type  1   force =    -0.00132705   -0.00132705    0.00046284

     Total force =     0.004004     Total SCF correction =     0.000047


     Computing stress (Cartesian axis) and pressure


     negative rho (up, down):  1.886E-06 0.000E+00
          total   stress  (Ry/bohr**3)                   (kbar)     P=   -9.48
  -0.00009603   0.00005804  -0.00000146        -14.13      8.54     -0.21
   0.00005804  -0.00009603  -0.00000146          8.54    -14.13     -0.21
  -0.00000146  -0.00000146  -0.00000117         -0.21     -0.21     -0.17


     Damped Dynamics: convergence achieved in  21 steps

     End of damped dynamics calculation

     Final energy =    -373.3546551558 Ry

Begin final coordinates
     new unit-cell volume =   2910.85278 a.u.^3 (   431.34387 Ang^3 )
     density =      0.86498 g/cm^3

CELL_PARAMETERS (alat= 10.38362426)
   1.000000000   0.000000000   0.000000000
   0.000000000   1.000000000   0.000000000
   0.000000000   0.000000000   2.600000000

ATOMIC_POSITIONS (angstrom)
Si      -0.010343389  -0.010343389   4.570672561
Si      -0.011770920   2.736479648   7.193584699
Si       2.736479648  -0.011770920   7.193584699
Si       2.737289187   2.737289187   4.302622502
Si       1.408915619   1.408915619   5.793746561
Si       1.900425622   3.575517617   8.274949563
Si       3.575517617   1.900425622   8.274949563
Si       4.066513364   4.066513364   5.792040329
End final coordinates



     Writing output data file Si.Fd-3m_1ML.save/
 
     init_run     :      2.17s CPU      6.71s WALL (       1 calls)
     electrons    :   5934.99s CPU  15588.19s WALL (      22 calls)
     update_pot   :     13.64s CPU     35.81s WALL (      21 calls)
     forces       :     14.74s CPU     39.88s WALL (      22 calls)
     stress       :     22.99s CPU     52.15s WALL (      22 calls)

     Called by init_run:
     wfcinit      :      1.12s CPU      3.57s WALL (       1 calls)
     potinit      :      0.52s CPU      1.34s WALL (       1 calls)
     hinit0       :      0.24s CPU      0.55s WALL (       1 calls)

     Called by electrons:
     c_bands      :   4814.15s CPU  12540.04s WALL (     189 calls)
     sum_band     :    131.63s CPU    456.62s WALL (     189 calls)
     v_of_rho     :     32.74s CPU     73.15s WALL (     203 calls)
     newd         :      4.39s CPU     13.97s WALL (     203 calls)
     PAW_pot      :     49.12s CPU    139.86s WALL (     224 calls)
     mix_rho      :    690.70s CPU   1518.74s WALL (     189 calls)

     Called by c_bands:
     init_us_2    :      3.56s CPU      5.12s WALL (    3108 calls)
     ccgdiagg     :   3676.37s CPU   8045.24s WALL (    1371 calls)
     wfcrot       :    143.08s CPU    466.18s WALL (    1168 calls)

     Called by sum_band:
     sum_band:bec :      0.02s CPU      0.05s WALL (    1470 calls)
     addusdens    :      3.27s CPU     10.89s WALL (     189 calls)

     Called by *cgdiagg:
     h_psi        :   1423.06s CPU   3550.61s WALL (  115000 calls)
     s_psi        :    118.75s CPU    166.57s WALL (  228832 calls)
     cdiaghg      :     13.96s CPU     29.60s WALL (    1168 calls)

     Called by h_psi:
     h_psi:pot    :   1419.80s CPU   3544.85s WALL (  115000 calls)
     h_psi:calbec :    818.37s CPU   1729.29s WALL (  115000 calls)
     vloc_psi     :    530.20s CPU   1705.94s WALL (  115000 calls)
     add_vuspsi   :     70.42s CPU    108.83s WALL (  115000 calls)
     hs_1psi      :   1363.47s CPU   3238.09s WALL (  113832 calls)
     s_1psi       :    705.09s CPU   1417.65s WALL (  113832 calls)

     General routines
     calbec       :   1473.06s CPU   3110.07s WALL (  231072 calls)
     fft          :      7.29s CPU     25.92s WALL (    2812 calls)
     ffts         :     94.57s CPU    297.40s WALL (   37880 calls)
     fftw         :    526.26s CPU   1792.42s WALL (  315592 calls)
 
     Parallel routines
     fft_scatt_xy :     53.89s CPU    103.51s WALL (  356284 calls)
     fft_scatt_yz :    411.21s CPU   1679.19s WALL (  356284 calls)
 
     PWSCF        :      1h40m CPU      4h23m WALL

 
   This run was terminated on:  15:19:54  25Sep2021            

=------------------------------------------------------------------------------=
   JOB DONE.
=------------------------------------------------------------------------------=
